V -t * -v 1.0a5 -a 0
A -t * -n 1 -p 0 -o 0xffffffff -c 31 -a 1
A -t * -h 1 -m 2147483647 -s 0
c -t * -i 4 -n yellow
c -t * -i 1 -n blue
c -t * -i 2 -n red
c -t * -i 3 -n green
n -t * -a 0 -s 0 -S UP -v circle -c black -i black
n -t * -a 1 -s 1 -S UP -v circle -c black -i black
n -t * -a 2 -s 2 -S UP -v circle -c black -i black
n -t * -a 3 -s 3 -S UP -v circle -c black -i black
l -t * -s 0 -d 2 -S UP -r 2000000 -D 0.01 -c black -o right-down
l -t * -s 1 -d 2 -S UP -r 2000000 -D 0.01 -c black -o right-up
l -t * -s 2 -d 3 -S UP -r 1000000 -D 0.01 -c black -o right
q -t * -s 3 -d 2 -a 0.5
q -t * -s 2 -d 3 -a 0.5
+ -t 0.25 -s 0 -d 2 -p tcp -e 40 -c 1 -i 0 -a 1 -x {0.0 3.0 0 ------- null}
- -t 0.25 -s 0 -d 2 -p tcp -e 40 -c 1 -i 0 -a 1 -x {0.0 3.0 0 ------- null}
h -t 0.25 -s 0 -d 2 -p tcp -e 40 -c 1 -i 0 -a 1 -x {0.0 3.0 -1 ------- null}
+ -t 0.25 -s 1 -d 2 -p cbr -e 1000 -c 2 -i 1 -a 2 -x {1.0 3.1 0 ------- null}
- -t 0.25 -s 1 -d 2 -p cbr -e 1000 -c 2 -i 1 -a 2 -x {1.0 3.1 0 ------- null}
h -t 0.25 -s 1 -d 2 -p cbr -e 1000 -c 2 -i 1 -a 2 -x {1.0 3.1 -1 ------- null}
+ -t 0.25 -s 1 -d 2 -p cbr -e 500 -c 2 -i 2 -a 2 -x {1.0 3.1 1 ------- null}
- -t 0.254 -s 1 -d 2 -p cbr -e 500 -c 2 -i 2 -a 2 -x {1.0 3.1 1 ------- null}
h -t 0.254 -s 1 -d 2 -p cbr -e 500 -c 2 -i 2 -a 2 -x {1.0 3.1 -1 ------- null}
r -t 0.26016 -s 0 -d 2 -p tcp -e 40 -c 1 -i 0 -a 1 -x {0.0 3.0 0 ------- null}
+ -t 0.26016 -s 2 -d 3 -p tcp -e 40 -c 1 -i 0 -a 1 -x {0.0 3.0 0 ------- null}
- -t 0.26016 -s 2 -d 3 -p tcp -e 40 -c 1 -i 0 -a 1 -x {0.0 3.0 0 ------- null}
h -t 0.26016 -s 2 -d 3 -p tcp -e 40 -c 1 -i 0 -a 1 -x {0.0 3.0 -1 ------- null}
r -t 0.264 -s 1 -d 2 -p cbr -e 1000 -c 2 -i 1 -a 2 -x {1.0 3.1 0 ------- null}
+ -t 0.264 -s 2 -d 3 -p cbr -e 1000 -c 2 -i 1 -a 2 -x {1.0 3.1 0 ------- null}
- -t 0.264 -s 2 -d 3 -p cbr -e 1000 -c 2 -i 1 -a 2 -x {1.0 3.1 0 ------- null}
h -t 0.264 -s 2 -d 3 -p cbr -e 1000 -c 2 -i 1 -a 2 -x {1.0 3.1 -1 ------- null}
r -t 0.266 -s 1 -d 2 -p cbr -e 500 -c 2 -i 2 -a 2 -x {1.0 3.1 1 ------- null}
+ -t 0.266 -s 2 -d 3 -p cbr -e 500 -c 2 -i 2 -a 2 -x {1.0 3.1 1 ------- null}
r -t 0.27048 -s 2 -d 3 -p tcp -e 40 -c 1 -i 0 -a 1 -x {0.0 3.0 0 ------- null}
+ -t 0.27048 -s 3 -d 2 -p ack -e 40 -c 1 -i 3 -a 1 -x {3.0 0.0 0 ------- null}
- -t 0.27048 -s 3 -d 2 -p ack -e 40 -c 1 -i 3 -a 1 -x {3.0 0.0 0 ------- null}
h -t 0.27048 -s 3 -d 2 -p ack -e 40 -c 1 -i 3 -a 1 -x {3.0 0.0 -1 ------- null}
- -t 0.272 -s 2 -d 3 -p cbr -e 500 -c 2 -i 2 -a 2 -x {1.0 3.1 1 ------- null}
h -t 0.272 -s 2 -d 3 -p cbr -e 500 -c 2 -i 2 -a 2 -x {1.0 3.1 -1 ------- null}
r -t 0.2808 -s 3 -d 2 -p ack -e 40 -c 1 -i 3 -a 1 -x {3.0 0.0 0 ------- null}
+ -t 0.2808 -s 2 -d 0 -p ack -e 40 -c 1 -i 3 -a 1 -x {3.0 0.0 0 ------- null}
- -t 0.2808 -s 2 -d 0 -p ack -e 40 -c 1 -i 3 -a 1 -x {3.0 0.0 0 ------- null}
h -t 0.2808 -s 2 -d 0 -p ack -e 40 -c 1 -i 3 -a 1 -x {3.0 0.0 -1 ------- null}
r -t 0.282 -s 2 -d 3 -p cbr -e 1000 -c 2 -i 1 -a 2 -x {1.0 3.1 0 ------- null}
r -t 0.286 -s 2 -d 3 -p cbr -e 500 -c 2 -i 2 -a 2 -x {1.0 3.1 1 ------- null}
r -t 0.29096 -s 2 -d 0 -p ack -e 40 -c 1 -i 3 -a 1 -x {3.0 0.0 0 ------- null}
+ -t 0.29096 -s 0 -d 2 -p tcp -e 1540 -c 1 -i 4 -a 1 -x {0.0 3.0 1 ------- null}
- -t 0.29096 -s 0 -d 2 -p tcp -e 1540 -c 1 -i 4 -a 1 -x {0.0 3.0 1 ------- null}
h -t 0.29096 -s 0 -d 2 -p tcp -e 1540 -c 1 -i 4 -a 1 -x {0.0 3.0 -1 ------- null}
+ -t 0.29096 -s 0 -d 2 -p tcp -e 1540 -c 1 -i 5 -a 1 -x {0.0 3.0 2 ------- null}
- -t 0.29712 -s 0 -d 2 -p tcp -e 1540 -c 1 -i 5 -a 1 -x {0.0 3.0 2 ------- null}
h -t 0.29712 -s 0 -d 2 -p tcp -e 1540 -c 1 -i 5 -a 1 -x {0.0 3.0 -1 ------- null}
+ -t 0.298 -s 1 -d 2 -p cbr -e 1000 -c 2 -i 6 -a 2 -x {1.0 3.1 2 ------- null}
- -t 0.298 -s 1 -d 2 -p cbr -e 1000 -c 2 -i 6 -a 2 -x {1.0 3.1 2 ------- null}
h -t 0.298 -s 1 -d 2 -p cbr -e 1000 -c 2 -i 6 -a 2 -x {1.0 3.1 -1 ------- null}
+ -t 0.298 -s 1 -d 2 -p cbr -e 500 -c 2 -i 7 -a 2 -x {1.0 3.1 3 ------- null}
- -t 0.302 -s 1 -d 2 -p cbr -e 500 -c 2 -i 7 -a 2 -x {1.0 3.1 3 ------- null}
h -t 0.302 -s 1 -d 2 -p cbr -e 500 -c 2 -i 7 -a 2 -x {1.0 3.1 -1 ------- null}
r -t 0.30712 -s 0 -d 2 -p tcp -e 1540 -c 1 -i 4 -a 1 -x {0.0 3.0 1 ------- null}
+ -t 0.30712 -s 2 -d 3 -p tcp -e 1540 -c 1 -i 4 -a 1 -x {0.0 3.0 1 ------- null}
- -t 0.30712 -s 2 -d 3 -p tcp -e 1540 -c 1 -i 4 -a 1 -x {0.0 3.0 1 ------- null}
h -t 0.30712 -s 2 -d 3 -p tcp -e 1540 -c 1 -i 4 -a 1 -x {0.0 3.0 -1 ------- null}
r -t 0.312 -s 1 -d 2 -p cbr -e 1000 -c 2 -i 6 -a 2 -x {1.0 3.1 2 ------- null}
+ -t 0.312 -s 2 -d 3 -p cbr -e 1000 -c 2 -i 6 -a 2 -x {1.0 3.1 2 ------- null}
r -t 0.31328 -s 0 -d 2 -p tcp -e 1540 -c 1 -i 5 -a 1 -x {0.0 3.0 2 ------- null}
+ -t 0.31328 -s 2 -d 3 -p tcp -e 1540 -c 1 -i 5 -a 1 -x {0.0 3.0 2 ------- null}
r -t 0.314 -s 1 -d 2 -p cbr -e 500 -c 2 -i 7 -a 2 -x {1.0 3.1 3 ------- null}
+ -t 0.314 -s 2 -d 3 -p cbr -e 500 -c 2 -i 7 -a 2 -x {1.0 3.1 3 ------- null}
- -t 0.31944 -s 2 -d 3 -p cbr -e 1000 -c 2 -i 6 -a 2 -x {1.0 3.1 2 ------- null}
h -t 0.31944 -s 2 -d 3 -p cbr -e 1000 -c 2 -i 6 -a 2 -x {1.0 3.1 -1 ------- null}
- -t 0.32744 -s 2 -d 3 -p tcp -e 1540 -c 1 -i 5 -a 1 -x {0.0 3.0 2 ------- null}
h -t 0.32744 -s 2 -d 3 -p tcp -e 1540 -c 1 -i 5 -a 1 -x {0.0 3.0 -1 ------- null}
r -t 0.32944 -s 2 -d 3 -p tcp -e 1540 -c 1 -i 4 -a 1 -x {0.0 3.0 1 ------- null}
+ -t 0.32944 -s 3 -d 2 -p ack -e 40 -c 1 -i 8 -a 1 -x {3.0 0.0 1 ------- null}
- -t 0.32944 -s 3 -d 2 -p ack -e 40 -c 1 -i 8 -a 1 -x {3.0 0.0 1 ------- null}
h -t 0.32944 -s 3 -d 2 -p ack -e 40 -c 1 -i 8 -a 1 -x {3.0 0.0 -1 ------- null}
r -t 0.33744 -s 2 -d 3 -p cbr -e 1000 -c 2 -i 6 -a 2 -x {1.0 3.1 2 ------- null}
- -t 0.33976 -s 2 -d 3 -p cbr -e 500 -c 2 -i 7 -a 2 -x {1.0 3.1 3 ------- null}
h -t 0.33976 -s 2 -d 3 -p cbr -e 500 -c 2 -i 7 -a 2 -x {1.0 3.1 -1 ------- null}
r -t 0.33976 -s 3 -d 2 -p ack -e 40 -c 1 -i 8 -a 1 -x {3.0 0.0 1 ------- null}
+ -t 0.33976 -s 2 -d 0 -p ack -e 40 -c 1 -i 8 -a 1 -x {3.0 0.0 1 ------- null}
- -t 0.33976 -s 2 -d 0 -p ack -e 40 -c 1 -i 8 -a 1 -x {3.0 0.0 1 ------- null}
h -t 0.33976 -s 2 -d 0 -p ack -e 40 -c 1 -i 8 -a 1 -x {3.0 0.0 -1 ------- null}
+ -t 0.346 -s 1 -d 2 -p cbr -e 1000 -c 2 -i 9 -a 2 -x {1.0 3.1 4 ------- null}
- -t 0.346 -s 1 -d 2 -p cbr -e 1000 -c 2 -i 9 -a 2 -x {1.0 3.1 4 ------- null}
h -t 0.346 -s 1 -d 2 -p cbr -e 1000 -c 2 -i 9 -a 2 -x {1.0 3.1 -1 ------- null}
+ -t 0.346 -s 1 -d 2 -p cbr -e 500 -c 2 -i 10 -a 2 -x {1.0 3.1 5 ------- null}
r -t 0.34976 -s 2 -d 3 -p tcp -e 1540 -c 1 -i 5 -a 1 -x {0.0 3.0 2 ------- null}
+ -t 0.34976 -s 3 -d 2 -p ack -e 40 -c 1 -i 11 -a 1 -x {3.0 0.0 2 ------- null}
- -t 0.34976 -s 3 -d 2 -p ack -e 40 -c 1 -i 11 -a 1 -x {3.0 0.0 2 ------- null}
h -t 0.34976 -s 3 -d 2 -p ack -e 40 -c 1 -i 11 -a 1 -x {3.0 0.0 -1 ------- null}
r -t 0.34992 -s 2 -d 0 -p ack -e 40 -c 1 -i 8 -a 1 -x {3.0 0.0 1 ------- null}
+ -t 0.34992 -s 0 -d 2 -p tcp -e 1540 -c 1 -i 12 -a 1 -x {0.0 3.0 3 ------- null}
- -t 0.34992 -s 0 -d 2 -p tcp -e 1540 -c 1 -i 12 -a 1 -x {0.0 3.0 3 ------- null}
h -t 0.34992 -s 0 -d 2 -p tcp -e 1540 -c 1 -i 12 -a 1 -x {0.0 3.0 -1 ------- null}
+ -t 0.34992 -s 0 -d 2 -p tcp -e 1540 -c 1 -i 13 -a 1 -x {0.0 3.0 4 ------- null}
- -t 0.35 -s 1 -d 2 -p cbr -e 500 -c 2 -i 10 -a 2 -x {1.0 3.1 5 ------- null}
h -t 0.35 -s 1 -d 2 -p cbr -e 500 -c 2 -i 10 -a 2 -x {1.0 3.1 -1 ------- null}
r -t 0.35376 -s 2 -d 3 -p cbr -e 500 -c 2 -i 7 -a 2 -x {1.0 3.1 3 ------- null}
- -t 0.35608 -s 0 -d 2 -p tcp -e 1540 -c 1 -i 13 -a 1 -x {0.0 3.0 4 ------- null}
h -t 0.35608 -s 0 -d 2 -p tcp -e 1540 -c 1 -i 13 -a 1 -x {0.0 3.0 -1 ------- null}
r -t 0.36 -s 1 -d 2 -p cbr -e 1000 -c 2 -i 9 -a 2 -x {1.0 3.1 4 ------- null}
+ -t 0.36 -s 2 -d 3 -p cbr -e 1000 -c 2 -i 9 -a 2 -x {1.0 3.1 4 ------- null}
- -t 0.36 -s 2 -d 3 -p cbr -e 1000 -c 2 -i 9 -a 2 -x {1.0 3.1 4 ------- null}
h -t 0.36 -s 2 -d 3 -p cbr -e 1000 -c 2 -i 9 -a 2 -x {1.0 3.1 -1 ------- null}
r -t 0.36008 -s 3 -d 2 -p ack -e 40 -c 1 -i 11 -a 1 -x {3.0 0.0 2 ------- null}
+ -t 0.36008 -s 2 -d 0 -p ack -e 40 -c 1 -i 11 -a 1 -x {3.0 0.0 2 ------- null}
- -t 0.36008 -s 2 -d 0 -p ack -e 40 -c 1 -i 11 -a 1 -x {3.0 0.0 2 ------- null}
h -t 0.36008 -s 2 -d 0 -p ack -e 40 -c 1 -i 11 -a 1 -x {3.0 0.0 -1 ------- null}
r -t 0.362 -s 1 -d 2 -p cbr -e 500 -c 2 -i 10 -a 2 -x {1.0 3.1 5 ------- null}
+ -t 0.362 -s 2 -d 3 -p cbr -e 500 -c 2 -i 10 -a 2 -x {1.0 3.1 5 ------- null}
r -t 0.36608 -s 0 -d 2 -p tcp -e 1540 -c 1 -i 12 -a 1 -x {0.0 3.0 3 ------- null}
+ -t 0.36608 -s 2 -d 3 -p tcp -e 1540 -c 1 -i 12 -a 1 -x {0.0 3.0 3 ------- null}
- -t 0.368 -s 2 -d 3 -p cbr -e 500 -c 2 -i 10 -a 2 -x {1.0 3.1 5 ------- null}
h -t 0.368 -s 2 -d 3 -p cbr -e 500 -c 2 -i 10 -a 2 -x {1.0 3.1 -1 ------- null}
r -t 0.37024 -s 2 -d 0 -p ack -e 40 -c 1 -i 11 -a 1 -x {3.0 0.0 2 ------- null}
+ -t 0.37024 -s 0 -d 2 -p tcp -e 1540 -c 1 -i 14 -a 1 -x {0.0 3.0 5 ------- null}
- -t 0.37024 -s 0 -d 2 -p tcp -e 1540 -c 1 -i 14 -a 1 -x {0.0 3.0 5 ------- null}
h -t 0.37024 -s 0 -d 2 -p tcp -e 1540 -c 1 -i 14 -a 1 -x {0.0 3.0 -1 ------- null}
+ -t 0.37024 -s 0 -d 2 -p tcp -e 1540 -c 1 -i 15 -a 1 -x {0.0 3.0 6 ------- null}
- -t 0.372 -s 2 -d 3 -p tcp -e 1540 -c 1 -i 12 -a 1 -x {0.0 3.0 3 ------- null}
h -t 0.372 -s 2 -d 3 -p tcp -e 1540 -c 1 -i 12 -a 1 -x {0.0 3.0 -1 ------- null}
r -t 0.37224 -s 0 -d 2 -p tcp -e 1540 -c 1 -i 13 -a 1 -x {0.0 3.0 4 ------- null}
+ -t 0.37224 -s 2 -d 3 -p tcp -e 1540 -c 1 -i 13 -a 1 -x {0.0 3.0 4 ------- null}
- -t 0.3764 -s 0 -d 2 -p tcp -e 1540 -c 1 -i 15 -a 1 -x {0.0 3.0 6 ------- null}
h -t 0.3764 -s 0 -d 2 -p tcp -e 1540 -c 1 -i 15 -a 1 -x {0.0 3.0 -1 ------- null}
r -t 0.378 -s 2 -d 3 -p cbr -e 1000 -c 2 -i 9 -a 2 -x {1.0 3.1 4 ------- null}
r -t 0.382 -s 2 -d 3 -p cbr -e 500 -c 2 -i 10 -a 2 -x {1.0 3.1 5 ------- null}
- -t 0.38432 -s 2 -d 3 -p tcp -e 1540 -c 1 -i 13 -a 1 -x {0.0 3.0 4 ------- null}
h -t 0.38432 -s 2 -d 3 -p tcp -e 1540 -c 1 -i 13 -a 1 -x {0.0 3.0 -1 ------- null}
r -t 0.3864 -s 0 -d 2 -p tcp -e 1540 -c 1 -i 14 -a 1 -x {0.0 3.0 5 ------- null}
+ -t 0.3864 -s 2 -d 3 -p tcp -e 1540 -c 1 -i 14 -a 1 -x {0.0 3.0 5 ------- null}
r -t 0.39256 -s 0 -d 2 -p tcp -e 1540 -c 1 -i 15 -a 1 -x {0.0 3.0 6 ------- null}
+ -t 0.39256 -s 2 -d 3 -p tcp -e 1540 -c 1 -i 15 -a 1 -x {0.0 3.0 6 ------- null}
+ -t 0.394 -s 1 -d 2 -p cbr -e 1000 -c 2 -i 16 -a 2 -x {1.0 3.1 6 ------- null}
- -t 0.394 -s 1 -d 2 -p cbr -e 1000 -c 2 -i 16 -a 2 -x {1.0 3.1 6 ------- null}
h -t 0.394 -s 1 -d 2 -p cbr -e 1000 -c 2 -i 16 -a 2 -x {1.0 3.1 -1 ------- null}
+ -t 0.394 -s 1 -d 2 -p cbr -e 500 -c 2 -i 17 -a 2 -x {1.0 3.1 7 ------- null}
r -t 0.39432 -s 2 -d 3 -p tcp -e 1540 -c 1 -i 12 -a 1 -x {0.0 3.0 3 ------- null}
+ -t 0.39432 -s 3 -d 2 -p ack -e 40 -c 1 -i 18 -a 1 -x {3.0 0.0 3 ------- null}
- -t 0.39432 -s 3 -d 2 -p ack -e 40 -c 1 -i 18 -a 1 -x {3.0 0.0 3 ------- null}
h -t 0.39432 -s 3 -d 2 -p ack -e 40 -c 1 -i 18 -a 1 -x {3.0 0.0 -1 ------- null}
- -t 0.39664 -s 2 -d 3 -p tcp -e 1540 -c 1 -i 14 -a 1 -x {0.0 3.0 5 ------- null}
h -t 0.39664 -s 2 -d 3 -p tcp -e 1540 -c 1 -i 14 -a 1 -x {0.0 3.0 -1 ------- null}
- -t 0.398 -s 1 -d 2 -p cbr -e 500 -c 2 -i 17 -a 2 -x {1.0 3.1 7 ------- null}
h -t 0.398 -s 1 -d 2 -p cbr -e 500 -c 2 -i 17 -a 2 -x {1.0 3.1 -1 ------- null}
r -t 0.40464 -s 3 -d 2 -p ack -e 40 -c 1 -i 18 -a 1 -x {3.0 0.0 3 ------- null}
+ -t 0.40464 -s 2 -d 0 -p ack -e 40 -c 1 -i 18 -a 1 -x {3.0 0.0 3 ------- null}
- -t 0.40464 -s 2 -d 0 -p ack -e 40 -c 1 -i 18 -a 1 -x {3.0 0.0 3 ------- null}
h -t 0.40464 -s 2 -d 0 -p ack -e 40 -c 1 -i 18 -a 1 -x {3.0 0.0 -1 ------- null}
r -t 0.40664 -s 2 -d 3 -p tcp -e 1540 -c 1 -i 13 -a 1 -x {0.0 3.0 4 ------- null}
+ -t 0.40664 -s 3 -d 2 -p ack -e 40 -c 1 -i 19 -a 1 -x {3.0 0.0 4 ------- null}
- -t 0.40664 -s 3 -d 2 -p ack -e 40 -c 1 -i 19 -a 1 -x {3.0 0.0 4 ------- null}
h -t 0.40664 -s 3 -d 2 -p ack -e 40 -c 1 -i 19 -a 1 -x {3.0 0.0 -1 ------- null}
r -t 0.408 -s 1 -d 2 -p cbr -e 1000 -c 2 -i 16 -a 2 -x {1.0 3.1 6 ------- null}
+ -t 0.408 -s 2 -d 3 -p cbr -e 1000 -c 2 -i 16 -a 2 -x {1.0 3.1 6 ------- null}
- -t 0.40896 -s 2 -d 3 -p tcp -e 1540 -c 1 -i 15 -a 1 -x {0.0 3.0 6 ------- null}
h -t 0.40896 -s 2 -d 3 -p tcp -e 1540 -c 1 -i 15 -a 1 -x {0.0 3.0 -1 ------- null}
r -t 0.41 -s 1 -d 2 -p cbr -e 500 -c 2 -i 17 -a 2 -x {1.0 3.1 7 ------- null}
+ -t 0.41 -s 2 -d 3 -p cbr -e 500 -c 2 -i 17 -a 2 -x {1.0 3.1 7 ------- null}
r -t 0.4148 -s 2 -d 0 -p ack -e 40 -c 1 -i 18 -a 1 -x {3.0 0.0 3 ------- null}
+ -t 0.4148 -s 0 -d 2 -p tcp -e 1540 -c 1 -i 20 -a 1 -x {0.0 3.0 7 ------- null}
- -t 0.4148 -s 0 -d 2 -p tcp -e 1540 -c 1 -i 20 -a 1 -x {0.0 3.0 7 ------- null}
h -t 0.4148 -s 0 -d 2 -p tcp -e 1540 -c 1 -i 20 -a 1 -x {0.0 3.0 -1 ------- null}
+ -t 0.4148 -s 0 -d 2 -p tcp -e 1540 -c 1 -i 21 -a 1 -x {0.0 3.0 8 ------- null}
r -t 0.41696 -s 3 -d 2 -p ack -e 40 -c 1 -i 19 -a 1 -x {3.0 0.0 4 ------- null}
+ -t 0.41696 -s 2 -d 0 -p ack -e 40 -c 1 -i 19 -a 1 -x {3.0 0.0 4 ------- null}
- -t 0.41696 -s 2 -d 0 -p ack -e 40 -c 1 -i 19 -a 1 -x {3.0 0.0 4 ------- null}
h -t 0.41696 -s 2 -d 0 -p ack -e 40 -c 1 -i 19 -a 1 -x {3.0 0.0 -1 ------- null}
r -t 0.41896 -s 2 -d 3 -p tcp -e 1540 -c 1 -i 14 -a 1 -x {0.0 3.0 5 ------- null}
+ -t 0.41896 -s 3 -d 2 -p ack -e 40 -c 1 -i 22 -a 1 -x {3.0 0.0 5 ------- null}
- -t 0.41896 -s 3 -d 2 -p ack -e 40 -c 1 -i 22 -a 1 -x {3.0 0.0 5 ------- null}
h -t 0.41896 -s 3 -d 2 -p ack -e 40 -c 1 -i 22 -a 1 -x {3.0 0.0 -1 ------- null}
- -t 0.42096 -s 0 -d 2 -p tcp -e 1540 -c 1 -i 21 -a 1 -x {0.0 3.0 8 ------- null}
h -t 0.42096 -s 0 -d 2 -p tcp -e 1540 -c 1 -i 21 -a 1 -x {0.0 3.0 -1 ------- null}
- -t 0.42128 -s 2 -d 3 -p cbr -e 1000 -c 2 -i 16 -a 2 -x {1.0 3.1 6 ------- null}
h -t 0.42128 -s 2 -d 3 -p cbr -e 1000 -c 2 -i 16 -a 2 -x {1.0 3.1 -1 ------- null}
r -t 0.42712 -s 2 -d 0 -p ack -e 40 -c 1 -i 19 -a 1 -x {3.0 0.0 4 ------- null}
+ -t 0.42712 -s 0 -d 2 -p tcp -e 1540 -c 1 -i 23 -a 1 -x {0.0 3.0 9 ------- null}
+ -t 0.42712 -s 0 -d 2 -p tcp -e 1540 -c 1 -i 24 -a 1 -x {0.0 3.0 10 ------- null}
- -t 0.42712 -s 0 -d 2 -p tcp -e 1540 -c 1 -i 23 -a 1 -x {0.0 3.0 9 ------- null}
h -t 0.42712 -s 0 -d 2 -p tcp -e 1540 -c 1 -i 23 -a 1 -x {0.0 3.0 -1 ------- null}
r -t 0.42928 -s 3 -d 2 -p ack -e 40 -c 1 -i 22 -a 1 -x {3.0 0.0 5 ------- null}
+ -t 0.42928 -s 2 -d 0 -p ack -e 40 -c 1 -i 22 -a 1 -x {3.0 0.0 5 ------- null}
- -t 0.42928 -s 2 -d 0 -p ack -e 40 -c 1 -i 22 -a 1 -x {3.0 0.0 5 ------- null}
h -t 0.42928 -s 2 -d 0 -p ack -e 40 -c 1 -i 22 -a 1 -x {3.0 0.0 -1 ------- null}
- -t 0.42928 -s 2 -d 3 -p cbr -e 500 -c 2 -i 17 -a 2 -x {1.0 3.1 7 ------- null}
h -t 0.42928 -s 2 -d 3 -p cbr -e 500 -c 2 -i 17 -a 2 -x {1.0 3.1 -1 ------- null}
r -t 0.43096 -s 0 -d 2 -p tcp -e 1540 -c 1 -i 20 -a 1 -x {0.0 3.0 7 ------- null}
+ -t 0.43096 -s 2 -d 3 -p tcp -e 1540 -c 1 -i 20 -a 1 -x {0.0 3.0 7 ------- null}
r -t 0.43128 -s 2 -d 3 -p tcp -e 1540 -c 1 -i 15 -a 1 -x {0.0 3.0 6 ------- null}
+ -t 0.43128 -s 3 -d 2 -p ack -e 40 -c 1 -i 25 -a 1 -x {3.0 0.0 6 ------- null}
- -t 0.43128 -s 3 -d 2 -p ack -e 40 -c 1 -i 25 -a 1 -x {3.0 0.0 6 ------- null}
h -t 0.43128 -s 3 -d 2 -p ack -e 40 -c 1 -i 25 -a 1 -x {3.0 0.0 -1 ------- null}
- -t 0.43328 -s 0 -d 2 -p tcp -e 1540 -c 1 -i 24 -a 1 -x {0.0 3.0 10 ------- null}
h -t 0.43328 -s 0 -d 2 -p tcp -e 1540 -c 1 -i 24 -a 1 -x {0.0 3.0 -1 ------- null}
- -t 0.43328 -s 2 -d 3 -p tcp -e 1540 -c 1 -i 20 -a 1 -x {0.0 3.0 7 ------- null}
h -t 0.43328 -s 2 -d 3 -p tcp -e 1540 -c 1 -i 20 -a 1 -x {0.0 3.0 -1 ------- null}
r -t 0.43712 -s 0 -d 2 -p tcp -e 1540 -c 1 -i 21 -a 1 -x {0.0 3.0 8 ------- null}
+ -t 0.43712 -s 2 -d 3 -p tcp -e 1540 -c 1 -i 21 -a 1 -x {0.0 3.0 8 ------- null}
r -t 0.43928 -s 2 -d 3 -p cbr -e 1000 -c 2 -i 16 -a 2 -x {1.0 3.1 6 ------- null}
r -t 0.43944 -s 2 -d 0 -p ack -e 40 -c 1 -i 22 -a 1 -x {3.0 0.0 5 ------- null}
+ -t 0.43944 -s 0 -d 2 -p tcp -e 1540 -c 1 -i 26 -a 1 -x {0.0 3.0 11 ------- null}
+ -t 0.43944 -s 0 -d 2 -p tcp -e 1540 -c 1 -i 27 -a 1 -x {0.0 3.0 12 ------- null}
- -t 0.43944 -s 0 -d 2 -p tcp -e 1540 -c 1 -i 26 -a 1 -x {0.0 3.0 11 ------- null}
h -t 0.43944 -s 0 -d 2 -p tcp -e 1540 -c 1 -i 26 -a 1 -x {0.0 3.0 -1 ------- null}
r -t 0.4416 -s 3 -d 2 -p ack -e 40 -c 1 -i 25 -a 1 -x {3.0 0.0 6 ------- null}
+ -t 0.4416 -s 2 -d 0 -p ack -e 40 -c 1 -i 25 -a 1 -x {3.0 0.0 6 ------- null}
- -t 0.4416 -s 2 -d 0 -p ack -e 40 -c 1 -i 25 -a 1 -x {3.0 0.0 6 ------- null}
h -t 0.4416 -s 2 -d 0 -p ack -e 40 -c 1 -i 25 -a 1 -x {3.0 0.0 -1 ------- null}
+ -t 0.442 -s 1 -d 2 -p cbr -e 1000 -c 2 -i 28 -a 2 -x {1.0 3.1 8 ------- null}
- -t 0.442 -s 1 -d 2 -p cbr -e 1000 -c 2 -i 28 -a 2 -x {1.0 3.1 8 ------- null}
h -t 0.442 -s 1 -d 2 -p cbr -e 1000 -c 2 -i 28 -a 2 -x {1.0 3.1 -1 ------- null}
+ -t 0.442 -s 1 -d 2 -p cbr -e 500 -c 2 -i 29 -a 2 -x {1.0 3.1 9 ------- null}
r -t 0.44328 -s 0 -d 2 -p tcp -e 1540 -c 1 -i 23 -a 1 -x {0.0 3.0 9 ------- null}
+ -t 0.44328 -s 2 -d 3 -p tcp -e 1540 -c 1 -i 23 -a 1 -x {0.0 3.0 9 ------- null}
r -t 0.44328 -s 2 -d 3 -p cbr -e 500 -c 2 -i 17 -a 2 -x {1.0 3.1 7 ------- null}
- -t 0.4456 -s 2 -d 3 -p tcp -e 1540 -c 1 -i 21 -a 1 -x {0.0 3.0 8 ------- null}
h -t 0.4456 -s 2 -d 3 -p tcp -e 1540 -c 1 -i 21 -a 1 -x {0.0 3.0 -1 ------- null}
- -t 0.4456 -s 0 -d 2 -p tcp -e 1540 -c 1 -i 27 -a 1 -x {0.0 3.0 12 ------- null}
h -t 0.4456 -s 0 -d 2 -p tcp -e 1540 -c 1 -i 27 -a 1 -x {0.0 3.0 -1 ------- null}
- -t 0.446 -s 1 -d 2 -p cbr -e 500 -c 2 -i 29 -a 2 -x {1.0 3.1 9 ------- null}
h -t 0.446 -s 1 -d 2 -p cbr -e 500 -c 2 -i 29 -a 2 -x {1.0 3.1 -1 ------- null}
r -t 0.44944 -s 0 -d 2 -p tcp -e 1540 -c 1 -i 24 -a 1 -x {0.0 3.0 10 ------- null}
+ -t 0.44944 -s 2 -d 3 -p tcp -e 1540 -c 1 -i 24 -a 1 -x {0.0 3.0 10 ------- null}
r -t 0.45176 -s 2 -d 0 -p ack -e 40 -c 1 -i 25 -a 1 -x {3.0 0.0 6 ------- null}
+ -t 0.45176 -s 0 -d 2 -p tcp -e 1540 -c 1 -i 30 -a 1 -x {0.0 3.0 13 ------- null}
+ -t 0.45176 -s 0 -d 2 -p tcp -e 1540 -c 1 -i 31 -a 1 -x {0.0 3.0 14 ------- null}
- -t 0.45176 -s 0 -d 2 -p tcp -e 1540 -c 1 -i 30 -a 1 -x {0.0 3.0 13 ------- null}
h -t 0.45176 -s 0 -d 2 -p tcp -e 1540 -c 1 -i 30 -a 1 -x {0.0 3.0 -1 ------- null}
r -t 0.4556 -s 2 -d 3 -p tcp -e 1540 -c 1 -i 20 -a 1 -x {0.0 3.0 7 ------- null}
+ -t 0.4556 -s 3 -d 2 -p ack -e 40 -c 1 -i 32 -a 1 -x {3.0 0.0 7 ------- null}
- -t 0.4556 -s 3 -d 2 -p ack -e 40 -c 1 -i 32 -a 1 -x {3.0 0.0 7 ------- null}
h -t 0.4556 -s 3 -d 2 -p ack -e 40 -c 1 -i 32 -a 1 -x {3.0 0.0 -1 ------- null}
r -t 0.4556 -s 0 -d 2 -p tcp -e 1540 -c 1 -i 26 -a 1 -x {0.0 3.0 11 ------- null}
+ -t 0.4556 -s 2 -d 3 -p tcp -e 1540 -c 1 -i 26 -a 1 -x {0.0 3.0 11 ------- null}
r -t 0.456 -s 1 -d 2 -p cbr -e 1000 -c 2 -i 28 -a 2 -x {1.0 3.1 8 ------- null}
+ -t 0.456 -s 2 -d 3 -p cbr -e 1000 -c 2 -i 28 -a 2 -x {1.0 3.1 8 ------- null}
d -t 0.456 -s 2 -d 3 -p cbr -e 1000 -c 2 -i 28 -a 2 -x {1.0 3.1 8 ------- null}
- -t 0.45792 -s 2 -d 3 -p tcp -e 1540 -c 1 -i 23 -a 1 -x {0.0 3.0 9 ------- null}
h -t 0.45792 -s 2 -d 3 -p tcp -e 1540 -c 1 -i 23 -a 1 -x {0.0 3.0 -1 ------- null}
- -t 0.45792 -s 0 -d 2 -p tcp -e 1540 -c 1 -i 31 -a 1 -x {0.0 3.0 14 ------- null}
h -t 0.45792 -s 0 -d 2 -p tcp -e 1540 -c 1 -i 31 -a 1 -x {0.0 3.0 -1 ------- null}
r -t 0.458 -s 1 -d 2 -p cbr -e 500 -c 2 -i 29 -a 2 -x {1.0 3.1 9 ------- null}
+ -t 0.458 -s 2 -d 3 -p cbr -e 500 -c 2 -i 29 -a 2 -x {1.0 3.1 9 ------- null}
r -t 0.46176 -s 0 -d 2 -p tcp -e 1540 -c 1 -i 27 -a 1 -x {0.0 3.0 12 ------- null}
+ -t 0.46176 -s 2 -d 3 -p tcp -e 1540 -c 1 -i 27 -a 1 -x {0.0 3.0 12 ------- null}
d -t 0.46176 -s 2 -d 3 -p tcp -e 1540 -c 1 -i 27 -a 1 -x {0.0 3.0 12 ------- null}
r -t 0.46592 -s 3 -d 2 -p ack -e 40 -c 1 -i 32 -a 1 -x {3.0 0.0 7 ------- null}
+ -t 0.46592 -s 2 -d 0 -p ack -e 40 -c 1 -i 32 -a 1 -x {3.0 0.0 7 ------- null}
- -t 0.46592 -s 2 -d 0 -p ack -e 40 -c 1 -i 32 -a 1 -x {3.0 0.0 7 ------- null}
h -t 0.46592 -s 2 -d 0 -p ack -e 40 -c 1 -i 32 -a 1 -x {3.0 0.0 -1 ------- null}
r -t 0.46792 -s 2 -d 3 -p tcp -e 1540 -c 1 -i 21 -a 1 -x {0.0 3.0 8 ------- null}
+ -t 0.46792 -s 3 -d 2 -p ack -e 40 -c 1 -i 33 -a 1 -x {3.0 0.0 8 ------- null}
- -t 0.46792 -s 3 -d 2 -p ack -e 40 -c 1 -i 33 -a 1 -x {3.0 0.0 8 ------- null}
h -t 0.46792 -s 3 -d 2 -p ack -e 40 -c 1 -i 33 -a 1 -x {3.0 0.0 -1 ------- null}
r -t 0.46792 -s 0 -d 2 -p tcp -e 1540 -c 1 -i 30 -a 1 -x {0.0 3.0 13 ------- null}
+ -t 0.46792 -s 2 -d 3 -p tcp -e 1540 -c 1 -i 30 -a 1 -x {0.0 3.0 13 ------- null}
d -t 0.46792 -s 2 -d 3 -p tcp -e 1540 -c 1 -i 30 -a 1 -x {0.0 3.0 13 ------- null}
- -t 0.47024 -s 2 -d 3 -p tcp -e 1540 -c 1 -i 24 -a 1 -x {0.0 3.0 10 ------- null}
h -t 0.47024 -s 2 -d 3 -p tcp -e 1540 -c 1 -i 24 -a 1 -x {0.0 3.0 -1 ------- null}
r -t 0.47408 -s 0 -d 2 -p tcp -e 1540 -c 1 -i 31 -a 1 -x {0.0 3.0 14 ------- null}
+ -t 0.47408 -s 2 -d 3 -p tcp -e 1540 -c 1 -i 31 -a 1 -x {0.0 3.0 14 ------- null}
r -t 0.47608 -s 2 -d 0 -p ack -e 40 -c 1 -i 32 -a 1 -x {3.0 0.0 7 ------- null}
+ -t 0.47608 -s 0 -d 2 -p tcp -e 1540 -c 1 -i 34 -a 1 -x {0.0 3.0 15 ------- null}
- -t 0.47608 -s 0 -d 2 -p tcp -e 1540 -c 1 -i 34 -a 1 -x {0.0 3.0 15 ------- null}
h -t 0.47608 -s 0 -d 2 -p tcp -e 1540 -c 1 -i 34 -a 1 -x {0.0 3.0 -1 ------- null}
+ -t 0.47608 -s 0 -d 2 -p tcp -e 1540 -c 1 -i 35 -a 1 -x {0.0 3.0 16 ------- null}
r -t 0.47824 -s 3 -d 2 -p ack -e 40 -c 1 -i 33 -a 1 -x {3.0 0.0 8 ------- null}
+ -t 0.47824 -s 2 -d 0 -p ack -e 40 -c 1 -i 33 -a 1 -x {3.0 0.0 8 ------- null}
- -t 0.47824 -s 2 -d 0 -p ack -e 40 -c 1 -i 33 -a 1 -x {3.0 0.0 8 ------- null}
h -t 0.47824 -s 2 -d 0 -p ack -e 40 -c 1 -i 33 -a 1 -x {3.0 0.0 -1 ------- null}
r -t 0.48024 -s 2 -d 3 -p tcp -e 1540 -c 1 -i 23 -a 1 -x {0.0 3.0 9 ------- null}
+ -t 0.48024 -s 3 -d 2 -p ack -e 40 -c 1 -i 36 -a 1 -x {3.0 0.0 9 ------- null}
- -t 0.48024 -s 3 -d 2 -p ack -e 40 -c 1 -i 36 -a 1 -x {3.0 0.0 9 ------- null}
h -t 0.48024 -s 3 -d 2 -p ack -e 40 -c 1 -i 36 -a 1 -x {3.0 0.0 -1 ------- null}
- -t 0.48224 -s 0 -d 2 -p tcp -e 1540 -c 1 -i 35 -a 1 -x {0.0 3.0 16 ------- null}
h -t 0.48224 -s 0 -d 2 -p tcp -e 1540 -c 1 -i 35 -a 1 -x {0.0 3.0 -1 ------- null}
- -t 0.48256 -s 2 -d 3 -p tcp -e 1540 -c 1 -i 26 -a 1 -x {0.0 3.0 11 ------- null}
h -t 0.48256 -s 2 -d 3 -p tcp -e 1540 -c 1 -i 26 -a 1 -x {0.0 3.0 -1 ------- null}
r -t 0.4884 -s 2 -d 0 -p ack -e 40 -c 1 -i 33 -a 1 -x {3.0 0.0 8 ------- null}
+ -t 0.4884 -s 0 -d 2 -p tcp -e 1540 -c 1 -i 37 -a 1 -x {0.0 3.0 17 ------- null}
+ -t 0.4884 -s 0 -d 2 -p tcp -e 1540 -c 1 -i 38 -a 1 -x {0.0 3.0 18 ------- null}
- -t 0.4884 -s 0 -d 2 -p tcp -e 1540 -c 1 -i 37 -a 1 -x {0.0 3.0 17 ------- null}
h -t 0.4884 -s 0 -d 2 -p tcp -e 1540 -c 1 -i 37 -a 1 -x {0.0 3.0 -1 ------- null}
+ -t 0.49 -s 1 -d 2 -p cbr -e 1000 -c 2 -i 39 -a 2 -x {1.0 3.1 10 ------- null}
- -t 0.49 -s 1 -d 2 -p cbr -e 1000 -c 2 -i 39 -a 2 -x {1.0 3.1 10 ------- null}
h -t 0.49 -s 1 -d 2 -p cbr -e 1000 -c 2 -i 39 -a 2 -x {1.0 3.1 -1 ------- null}
+ -t 0.49 -s 1 -d 2 -p cbr -e 500 -c 2 -i 40 -a 2 -x {1.0 3.1 11 ------- null}
r -t 0.49056 -s 3 -d 2 -p ack -e 40 -c 1 -i 36 -a 1 -x {3.0 0.0 9 ------- null}
+ -t 0.49056 -s 2 -d 0 -p ack -e 40 -c 1 -i 36 -a 1 -x {3.0 0.0 9 ------- null}
- -t 0.49056 -s 2 -d 0 -p ack -e 40 -c 1 -i 36 -a 1 -x {3.0 0.0 9 ------- null}
h -t 0.49056 -s 2 -d 0 -p ack -e 40 -c 1 -i 36 -a 1 -x {3.0 0.0 -1 ------- null}
r -t 0.49224 -s 0 -d 2 -p tcp -e 1540 -c 1 -i 34 -a 1 -x {0.0 3.0 15 ------- null}
+ -t 0.49224 -s 2 -d 3 -p tcp -e 1540 -c 1 -i 34 -a 1 -x {0.0 3.0 15 ------- null}
r -t 0.49256 -s 2 -d 3 -p tcp -e 1540 -c 1 -i 24 -a 1 -x {0.0 3.0 10 ------- null}
+ -t 0.49256 -s 3 -d 2 -p ack -e 40 -c 1 -i 41 -a 1 -x {3.0 0.0 10 ------- null}
- -t 0.49256 -s 3 -d 2 -p ack -e 40 -c 1 -i 41 -a 1 -x {3.0 0.0 10 ------- null}
h -t 0.49256 -s 3 -d 2 -p ack -e 40 -c 1 -i 41 -a 1 -x {3.0 0.0 -1 ------- null}
- -t 0.494 -s 1 -d 2 -p cbr -e 500 -c 2 -i 40 -a 2 -x {1.0 3.1 11 ------- null}
h -t 0.494 -s 1 -d 2 -p cbr -e 500 -c 2 -i 40 -a 2 -x {1.0 3.1 -1 ------- null}
- -t 0.49456 -s 0 -d 2 -p tcp -e 1540 -c 1 -i 38 -a 1 -x {0.0 3.0 18 ------- null}
h -t 0.49456 -s 0 -d 2 -p tcp -e 1540 -c 1 -i 38 -a 1 -x {0.0 3.0 -1 ------- null}
- -t 0.49488 -s 2 -d 3 -p cbr -e 500 -c 2 -i 29 -a 2 -x {1.0 3.1 9 ------- null}
h -t 0.49488 -s 2 -d 3 -p cbr -e 500 -c 2 -i 29 -a 2 -x {1.0 3.1 -1 ------- null}
r -t 0.4984 -s 0 -d 2 -p tcp -e 1540 -c 1 -i 35 -a 1 -x {0.0 3.0 16 ------- null}
+ -t 0.4984 -s 2 -d 3 -p tcp -e 1540 -c 1 -i 35 -a 1 -x {0.0 3.0 16 ------- null}
- -t 0.49888 -s 2 -d 3 -p tcp -e 1540 -c 1 -i 31 -a 1 -x {0.0 3.0 14 ------- null}
h -t 0.49888 -s 2 -d 3 -p tcp -e 1540 -c 1 -i 31 -a 1 -x {0.0 3.0 -1 ------- null}
r -t 0.50072 -s 2 -d 0 -p ack -e 40 -c 1 -i 36 -a 1 -x {3.0 0.0 9 ------- null}
+ -t 0.50072 -s 0 -d 2 -p tcp -e 1540 -c 1 -i 42 -a 1 -x {0.0 3.0 19 ------- null}
+ -t 0.50072 -s 0 -d 2 -p tcp -e 1540 -c 1 -i 43 -a 1 -x {0.0 3.0 20 ------- null}
- -t 0.50072 -s 0 -d 2 -p tcp -e 1540 -c 1 -i 42 -a 1 -x {0.0 3.0 19 ------- null}
h -t 0.50072 -s 0 -d 2 -p tcp -e 1540 -c 1 -i 42 -a 1 -x {0.0 3.0 -1 ------- null}
r -t 0.50288 -s 3 -d 2 -p ack -e 40 -c 1 -i 41 -a 1 -x {3.0 0.0 10 ------- null}
+ -t 0.50288 -s 2 -d 0 -p ack -e 40 -c 1 -i 41 -a 1 -x {3.0 0.0 10 ------- null}
- -t 0.50288 -s 2 -d 0 -p ack -e 40 -c 1 -i 41 -a 1 -x {3.0 0.0 10 ------- null}
h -t 0.50288 -s 2 -d 0 -p ack -e 40 -c 1 -i 41 -a 1 -x {3.0 0.0 -1 ------- null}
r -t 0.504 -s 1 -d 2 -p cbr -e 1000 -c 2 -i 39 -a 2 -x {1.0 3.1 10 ------- null}
+ -t 0.504 -s 2 -d 3 -p cbr -e 1000 -c 2 -i 39 -a 2 -x {1.0 3.1 10 ------- null}
r -t 0.50456 -s 0 -d 2 -p tcp -e 1540 -c 1 -i 37 -a 1 -x {0.0 3.0 17 ------- null}
+ -t 0.50456 -s 2 -d 3 -p tcp -e 1540 -c 1 -i 37 -a 1 -x {0.0 3.0 17 ------- null}
d -t 0.50456 -s 2 -d 3 -p tcp -e 1540 -c 1 -i 37 -a 1 -x {0.0 3.0 17 ------- null}
r -t 0.50488 -s 2 -d 3 -p tcp -e 1540 -c 1 -i 26 -a 1 -x {0.0 3.0 11 ------- null}
+ -t 0.50488 -s 3 -d 2 -p ack -e 40 -c 1 -i 44 -a 1 -x {3.0 0.0 11 ------- null}
- -t 0.50488 -s 3 -d 2 -p ack -e 40 -c 1 -i 44 -a 1 -x {3.0 0.0 11 ------- null}
h -t 0.50488 -s 3 -d 2 -p ack -e 40 -c 1 -i 44 -a 1 -x {3.0 0.0 -1 ------- null}
r -t 0.506 -s 1 -d 2 -p cbr -e 500 -c 2 -i 40 -a 2 -x {1.0 3.1 11 ------- null}
+ -t 0.506 -s 2 -d 3 -p cbr -e 500 -c 2 -i 40 -a 2 -x {1.0 3.1 11 ------- null}
d -t 0.506 -s 2 -d 3 -p cbr -e 500 -c 2 -i 40 -a 2 -x {1.0 3.1 11 ------- null}
- -t 0.50688 -s 0 -d 2 -p tcp -e 1540 -c 1 -i 43 -a 1 -x {0.0 3.0 20 ------- null}
h -t 0.50688 -s 0 -d 2 -p tcp -e 1540 -c 1 -i 43 -a 1 -x {0.0 3.0 -1 ------- null}
r -t 0.50888 -s 2 -d 3 -p cbr -e 500 -c 2 -i 29 -a 2 -x {1.0 3.1 9 ------- null}
r -t 0.51072 -s 0 -d 2 -p tcp -e 1540 -c 1 -i 38 -a 1 -x {0.0 3.0 18 ------- null}
+ -t 0.51072 -s 2 -d 3 -p tcp -e 1540 -c 1 -i 38 -a 1 -x {0.0 3.0 18 ------- null}
d -t 0.51072 -s 2 -d 3 -p tcp -e 1540 -c 1 -i 38 -a 1 -x {0.0 3.0 18 ------- null}
- -t 0.5112 -s 2 -d 3 -p tcp -e 1540 -c 1 -i 34 -a 1 -x {0.0 3.0 15 ------- null}
h -t 0.5112 -s 2 -d 3 -p tcp -e 1540 -c 1 -i 34 -a 1 -x {0.0 3.0 -1 ------- null}
r -t 0.51304 -s 2 -d 0 -p ack -e 40 -c 1 -i 41 -a 1 -x {3.0 0.0 10 ------- null}
+ -t 0.51304 -s 0 -d 2 -p tcp -e 1540 -c 1 -i 45 -a 1 -x {0.0 3.0 21 ------- null}
+ -t 0.51304 -s 0 -d 2 -p tcp -e 1540 -c 1 -i 46 -a 1 -x {0.0 3.0 22 ------- null}
- -t 0.51304 -s 0 -d 2 -p tcp -e 1540 -c 1 -i 45 -a 1 -x {0.0 3.0 21 ------- null}
h -t 0.51304 -s 0 -d 2 -p tcp -e 1540 -c 1 -i 45 -a 1 -x {0.0 3.0 -1 ------- null}
r -t 0.5152 -s 3 -d 2 -p ack -e 40 -c 1 -i 44 -a 1 -x {3.0 0.0 11 ------- null}
+ -t 0.5152 -s 2 -d 0 -p ack -e 40 -c 1 -i 44 -a 1 -x {3.0 0.0 11 ------- null}
- -t 0.5152 -s 2 -d 0 -p ack -e 40 -c 1 -i 44 -a 1 -x {3.0 0.0 11 ------- null}
h -t 0.5152 -s 2 -d 0 -p ack -e 40 -c 1 -i 44 -a 1 -x {3.0 0.0 -1 ------- null}
r -t 0.51688 -s 0 -d 2 -p tcp -e 1540 -c 1 -i 42 -a 1 -x {0.0 3.0 19 ------- null}
+ -t 0.51688 -s 2 -d 3 -p tcp -e 1540 -c 1 -i 42 -a 1 -x {0.0 3.0 19 ------- null}
- -t 0.5192 -s 0 -d 2 -p tcp -e 1540 -c 1 -i 46 -a 1 -x {0.0 3.0 22 ------- null}
h -t 0.5192 -s 0 -d 2 -p tcp -e 1540 -c 1 -i 46 -a 1 -x {0.0 3.0 -1 ------- null}
r -t 0.5212 -s 2 -d 3 -p tcp -e 1540 -c 1 -i 31 -a 1 -x {0.0 3.0 14 ------- null}
+ -t 0.5212 -s 3 -d 2 -p ack -e 40 -c 1 -i 47 -a 1 -x {3.0 0.0 11 ------- null}
- -t 0.5212 -s 3 -d 2 -p ack -e 40 -c 1 -i 47 -a 1 -x {3.0 0.0 11 ------- null}
h -t 0.5212 -s 3 -d 2 -p ack -e 40 -c 1 -i 47 -a 1 -x {3.0 0.0 -1 ------- null}
r -t 0.52304 -s 0 -d 2 -p tcp -e 1540 -c 1 -i 43 -a 1 -x {0.0 3.0 20 ------- null}
+ -t 0.52304 -s 2 -d 3 -p tcp -e 1540 -c 1 -i 43 -a 1 -x {0.0 3.0 20 ------- null}
d -t 0.52304 -s 2 -d 3 -p tcp -e 1540 -c 1 -i 43 -a 1 -x {0.0 3.0 20 ------- null}
- -t 0.52352 -s 2 -d 3 -p tcp -e 1540 -c 1 -i 35 -a 1 -x {0.0 3.0 16 ------- null}
h -t 0.52352 -s 2 -d 3 -p tcp -e 1540 -c 1 -i 35 -a 1 -x {0.0 3.0 -1 ------- null}
r -t 0.52536 -s 2 -d 0 -p ack -e 40 -c 1 -i 44 -a 1 -x {3.0 0.0 11 ------- null}
+ -t 0.52536 -s 0 -d 2 -p tcp -e 1540 -c 1 -i 48 -a 1 -x {0.0 3.0 23 ------- null}
+ -t 0.52536 -s 0 -d 2 -p tcp -e 1540 -c 1 -i 49 -a 1 -x {0.0 3.0 24 ------- null}
- -t 0.52536 -s 0 -d 2 -p tcp -e 1540 -c 1 -i 48 -a 1 -x {0.0 3.0 23 ------- null}
h -t 0.52536 -s 0 -d 2 -p tcp -e 1540 -c 1 -i 48 -a 1 -x {0.0 3.0 -1 ------- null}
r -t 0.5292 -s 0 -d 2 -p tcp -e 1540 -c 1 -i 45 -a 1 -x {0.0 3.0 21 ------- null}
+ -t 0.5292 -s 2 -d 3 -p tcp -e 1540 -c 1 -i 45 -a 1 -x {0.0 3.0 21 ------- null}
r -t 0.53152 -s 3 -d 2 -p ack -e 40 -c 1 -i 47 -a 1 -x {3.0 0.0 11 ------- null}
+ -t 0.53152 -s 2 -d 0 -p ack -e 40 -c 1 -i 47 -a 1 -x {3.0 0.0 11 ------- null}
- -t 0.53152 -s 2 -d 0 -p ack -e 40 -c 1 -i 47 -a 1 -x {3.0 0.0 11 ------- null}
h -t 0.53152 -s 2 -d 0 -p ack -e 40 -c 1 -i 47 -a 1 -x {3.0 0.0 -1 ------- null}
- -t 0.53152 -s 0 -d 2 -p tcp -e 1540 -c 1 -i 49 -a 1 -x {0.0 3.0 24 ------- null}
h -t 0.53152 -s 0 -d 2 -p tcp -e 1540 -c 1 -i 49 -a 1 -x {0.0 3.0 -1 ------- null}
r -t 0.53352 -s 2 -d 3 -p tcp -e 1540 -c 1 -i 34 -a 1 -x {0.0 3.0 15 ------- null}
+ -t 0.53352 -s 3 -d 2 -p ack -e 40 -c 1 -i 50 -a 1 -x {3.0 0.0 11 ------- null}
- -t 0.53352 -s 3 -d 2 -p ack -e 40 -c 1 -i 50 -a 1 -x {3.0 0.0 11 ------- null}
h -t 0.53352 -s 3 -d 2 -p ack -e 40 -c 1 -i 50 -a 1 -x {3.0 0.0 -1 ------- null}