V -t * -v 1.0a5 -a 0
A -t * -n 1 -p 0 -o 0xffffffff -c 31 -a 1
A -t * -h 1 -m 2147483647 -s 0
c -t * -i 4 -n yellow
c -t * -i 1 -n blue
c -t * -i 2 -n red
c -t * -i 3 -n green
n -t * -a 0 -s 0 -S UP -v circle -c black -i black
n -t * -a 1 -s 1 -S UP -v circle -c black -i black
n -t * -a 2 -s 2 -S UP -v circle -c black -i black
n -t * -a 3 -s 3 -S UP -v circle -c black -i black
l -t * -s 0 -d 2 -S UP -r 2000000 -D 0.01 -c black -o right-down
l -t * -s 1 -d 2 -S UP -r 2000000 -D 0.01 -c black -o right-up
l -t * -s 2 -d 3 -S UP -r 1000000 -D 0.01 -c black -o right
q -t * -s 3 -d 2 -a 0.5
q -t * -s 2 -d 3 -a 0.5
+ -t 0.25 -s 0 -d 2 -p tcp -e 40 -c 1 -i 0 -a 1 -x {0.0 3.0 0 ------- null}
- -t 0.25 -s 0 -d 2 -p tcp -e 40 -c 1 -i 0 -a 1 -x {0.0 3.0 0 ------- null}
h -t 0.25 -s 0 -d 2 -p tcp -e 40 -c 1 -i 0 -a 1 -x {0.0 3.0 -1 ------- null}
+ -t 0.25 -s 1 -d 2 -p cbr -e 1000 -c 2 -i 1 -a 2 -x {1.0 3.1 0 ------- null}
- -t 0.25 -s 1 -d 2 -p cbr -e 1000 -c 2 -i 1 -a 2 -x {1.0 3.1 0 ------- null}
h -t 0.25 -s 1 -d 2 -p cbr -e 1000 -c 2 -i 1 -a 2 -x {1.0 3.1 -1 ------- null}
+ -t 0.25 -s 1 -d 2 -p cbr -e 500 -c 2 -i 2 -a 2 -x {1.0 3.1 1 ------- null}
- -t 0.254 -s 1 -d 2 -p cbr -e 500 -c 2 -i 2 -a 2 -x {1.0 3.1 1 ------- null}
h -t 0.254 -s 1 -d 2 -p cbr -e 500 -c 2 -i 2 -a 2 -x {1.0 3.1 -1 ------- null}
r -t 0.26016 -s 0 -d 2 -p tcp -e 40 -c 1 -i 0 -a 1 -x {0.0 3.0 0 ------- null}
+ -t 0.26016 -s 2 -d 3 -p tcp -e 40 -c 1 -i 0 -a 1 -x {0.0 3.0 0 ------- null}
- -t 0.26016 -s 2 -d 3 -p tcp -e 40 -c 1 -i 0 -a 1 -x {0.0 3.0 0 ------- null}
h -t 0.26016 -s 2 -d 3 -p tcp -e 40 -c 1 -i 0 -a 1 -x {0.0 3.0 -1 ------- null}
r -t 0.264 -s 1 -d 2 -p cbr -e 1000 -c 2 -i 1 -a 2 -x {1.0 3.1 0 ------- null}
+ -t 0.264 -s 2 -d 3 -p cbr -e 1000 -c 2 -i 1 -a 2 -x {1.0 3.1 0 ------- null}
- -t 0.264 -s 2 -d 3 -p cbr -e 1000 -c 2 -i 1 -a 2 -x {1.0 3.1 0 ------- null}
h -t 0.264 -s 2 -d 3 -p cbr -e 1000 -c 2 -i 1 -a 2 -x {1.0 3.1 -1 ------- null}
+ -t 0.265 -s 1 -d 2 -p cbr -e 1000 -c 2 -i 3 -a 2 -x {1.0 3.1 2 ------- null}
- -t 0.265 -s 1 -d 2 -p cbr -e 1000 -c 2 -i 3 -a 2 -x {1.0 3.1 2 ------- null}
h -t 0.265 -s 1 -d 2 -p cbr -e 1000 -c 2 -i 3 -a 2 -x {1.0 3.1 -1 ------- null}
+ -t 0.265 -s 1 -d 2 -p cbr -e 500 -c 2 -i 4 -a 2 -x {1.0 3.1 3 ------- null}
r -t 0.266 -s 1 -d 2 -p cbr -e 500 -c 2 -i 2 -a 2 -x {1.0 3.1 1 ------- null}
+ -t 0.266 -s 2 -d 3 -p cbr -e 500 -c 2 -i 2 -a 2 -x {1.0 3.1 1 ------- null}
- -t 0.269 -s 1 -d 2 -p cbr -e 500 -c 2 -i 4 -a 2 -x {1.0 3.1 3 ------- null}
h -t 0.269 -s 1 -d 2 -p cbr -e 500 -c 2 -i 4 -a 2 -x {1.0 3.1 -1 ------- null}
r -t 0.27048 -s 2 -d 3 -p tcp -e 40 -c 1 -i 0 -a 1 -x {0.0 3.0 0 ------- null}
+ -t 0.27048 -s 3 -d 2 -p ack -e 40 -c 1 -i 5 -a 1 -x {3.0 0.0 0 ------- null}
- -t 0.27048 -s 3 -d 2 -p ack -e 40 -c 1 -i 5 -a 1 -x {3.0 0.0 0 ------- null}
h -t 0.27048 -s 3 -d 2 -p ack -e 40 -c 1 -i 5 -a 1 -x {3.0 0.0 -1 ------- null}
- -t 0.272 -s 2 -d 3 -p cbr -e 500 -c 2 -i 2 -a 2 -x {1.0 3.1 1 ------- null}
h -t 0.272 -s 2 -d 3 -p cbr -e 500 -c 2 -i 2 -a 2 -x {1.0 3.1 -1 ------- null}
r -t 0.279 -s 1 -d 2 -p cbr -e 1000 -c 2 -i 3 -a 2 -x {1.0 3.1 2 ------- null}
+ -t 0.279 -s 2 -d 3 -p cbr -e 1000 -c 2 -i 3 -a 2 -x {1.0 3.1 2 ------- null}
- -t 0.279 -s 2 -d 3 -p cbr -e 1000 -c 2 -i 3 -a 2 -x {1.0 3.1 2 ------- null}
h -t 0.279 -s 2 -d 3 -p cbr -e 1000 -c 2 -i 3 -a 2 -x {1.0 3.1 -1 ------- null}
+ -t 0.28 -s 1 -d 2 -p cbr -e 1000 -c 2 -i 6 -a 2 -x {1.0 3.1 4 ------- null}
- -t 0.28 -s 1 -d 2 -p cbr -e 1000 -c 2 -i 6 -a 2 -x {1.0 3.1 4 ------- null}
h -t 0.28 -s 1 -d 2 -p cbr -e 1000 -c 2 -i 6 -a 2 -x {1.0 3.1 -1 ------- null}
+ -t 0.28 -s 1 -d 2 -p cbr -e 500 -c 2 -i 7 -a 2 -x {1.0 3.1 5 ------- null}
r -t 0.2808 -s 3 -d 2 -p ack -e 40 -c 1 -i 5 -a 1 -x {3.0 0.0 0 ------- null}
+ -t 0.2808 -s 2 -d 0 -p ack -e 40 -c 1 -i 5 -a 1 -x {3.0 0.0 0 ------- null}
- -t 0.2808 -s 2 -d 0 -p ack -e 40 -c 1 -i 5 -a 1 -x {3.0 0.0 0 ------- null}
h -t 0.2808 -s 2 -d 0 -p ack -e 40 -c 1 -i 5 -a 1 -x {3.0 0.0 -1 ------- null}
r -t 0.281 -s 1 -d 2 -p cbr -e 500 -c 2 -i 4 -a 2 -x {1.0 3.1 3 ------- null}
+ -t 0.281 -s 2 -d 3 -p cbr -e 500 -c 2 -i 4 -a 2 -x {1.0 3.1 3 ------- null}
r -t 0.282 -s 2 -d 3 -p cbr -e 1000 -c 2 -i 1 -a 2 -x {1.0 3.1 0 ------- null}
- -t 0.284 -s 1 -d 2 -p cbr -e 500 -c 2 -i 7 -a 2 -x {1.0 3.1 5 ------- null}
h -t 0.284 -s 1 -d 2 -p cbr -e 500 -c 2 -i 7 -a 2 -x {1.0 3.1 -1 ------- null}
r -t 0.286 -s 2 -d 3 -p cbr -e 500 -c 2 -i 2 -a 2 -x {1.0 3.1 1 ------- null}
- -t 0.287 -s 2 -d 3 -p cbr -e 500 -c 2 -i 4 -a 2 -x {1.0 3.1 3 ------- null}
h -t 0.287 -s 2 -d 3 -p cbr -e 500 -c 2 -i 4 -a 2 -x {1.0 3.1 -1 ------- null}
r -t 0.29096 -s 2 -d 0 -p ack -e 40 -c 1 -i 5 -a 1 -x {3.0 0.0 0 ------- null}
+ -t 0.29096 -s 0 -d 2 -p tcp -e 1540 -c 1 -i 8 -a 1 -x {0.0 3.0 1 ------- null}
- -t 0.29096 -s 0 -d 2 -p tcp -e 1540 -c 1 -i 8 -a 1 -x {0.0 3.0 1 ------- null}
h -t 0.29096 -s 0 -d 2 -p tcp -e 1540 -c 1 -i 8 -a 1 -x {0.0 3.0 -1 ------- null}
+ -t 0.29096 -s 0 -d 2 -p tcp -e 1540 -c 1 -i 9 -a 1 -x {0.0 3.0 2 ------- null}
r -t 0.294 -s 1 -d 2 -p cbr -e 1000 -c 2 -i 6 -a 2 -x {1.0 3.1 4 ------- null}
+ -t 0.294 -s 2 -d 3 -p cbr -e 1000 -c 2 -i 6 -a 2 -x {1.0 3.1 4 ------- null}
- -t 0.294 -s 2 -d 3 -p cbr -e 1000 -c 2 -i 6 -a 2 -x {1.0 3.1 4 ------- null}
h -t 0.294 -s 2 -d 3 -p cbr -e 1000 -c 2 -i 6 -a 2 -x {1.0 3.1 -1 ------- null}
+ -t 0.295 -s 1 -d 2 -p cbr -e 1000 -c 2 -i 10 -a 2 -x {1.0 3.1 6 ------- null}
- -t 0.295 -s 1 -d 2 -p cbr -e 1000 -c 2 -i 10 -a 2 -x {1.0 3.1 6 ------- null}
h -t 0.295 -s 1 -d 2 -p cbr -e 1000 -c 2 -i 10 -a 2 -x {1.0 3.1 -1 ------- null}
+ -t 0.295 -s 1 -d 2 -p cbr -e 500 -c 2 -i 11 -a 2 -x {1.0 3.1 7 ------- null}
r -t 0.296 -s 1 -d 2 -p cbr -e 500 -c 2 -i 7 -a 2 -x {1.0 3.1 5 ------- null}
+ -t 0.296 -s 2 -d 3 -p cbr -e 500 -c 2 -i 7 -a 2 -x {1.0 3.1 5 ------- null}
r -t 0.297 -s 2 -d 3 -p cbr -e 1000 -c 2 -i 3 -a 2 -x {1.0 3.1 2 ------- null}
- -t 0.29712 -s 0 -d 2 -p tcp -e 1540 -c 1 -i 9 -a 1 -x {0.0 3.0 2 ------- null}
h -t 0.29712 -s 0 -d 2 -p tcp -e 1540 -c 1 -i 9 -a 1 -x {0.0 3.0 -1 ------- null}
- -t 0.299 -s 1 -d 2 -p cbr -e 500 -c 2 -i 11 -a 2 -x {1.0 3.1 7 ------- null}
h -t 0.299 -s 1 -d 2 -p cbr -e 500 -c 2 -i 11 -a 2 -x {1.0 3.1 -1 ------- null}
r -t 0.301 -s 2 -d 3 -p cbr -e 500 -c 2 -i 4 -a 2 -x {1.0 3.1 3 ------- null}
- -t 0.302 -s 2 -d 3 -p cbr -e 500 -c 2 -i 7 -a 2 -x {1.0 3.1 5 ------- null}
h -t 0.302 -s 2 -d 3 -p cbr -e 500 -c 2 -i 7 -a 2 -x {1.0 3.1 -1 ------- null}
r -t 0.30712 -s 0 -d 2 -p tcp -e 1540 -c 1 -i 8 -a 1 -x {0.0 3.0 1 ------- null}
+ -t 0.30712 -s 2 -d 3 -p tcp -e 1540 -c 1 -i 8 -a 1 -x {0.0 3.0 1 ------- null}
- -t 0.30712 -s 2 -d 3 -p tcp -e 1540 -c 1 -i 8 -a 1 -x {0.0 3.0 1 ------- null}
h -t 0.30712 -s 2 -d 3 -p tcp -e 1540 -c 1 -i 8 -a 1 -x {0.0 3.0 -1 ------- null}
r -t 0.309 -s 1 -d 2 -p cbr -e 1000 -c 2 -i 10 -a 2 -x {1.0 3.1 6 ------- null}
+ -t 0.309 -s 2 -d 3 -p cbr -e 1000 -c 2 -i 10 -a 2 -x {1.0 3.1 6 ------- null}
+ -t 0.31 -s 1 -d 2 -p cbr -e 1000 -c 2 -i 12 -a 2 -x {1.0 3.1 8 ------- null}
- -t 0.31 -s 1 -d 2 -p cbr -e 1000 -c 2 -i 12 -a 2 -x {1.0 3.1 8 ------- null}
h -t 0.31 -s 1 -d 2 -p cbr -e 1000 -c 2 -i 12 -a 2 -x {1.0 3.1 -1 ------- null}
+ -t 0.31 -s 1 -d 2 -p cbr -e 500 -c 2 -i 13 -a 2 -x {1.0 3.1 9 ------- null}
r -t 0.311 -s 1 -d 2 -p cbr -e 500 -c 2 -i 11 -a 2 -x {1.0 3.1 7 ------- null}
+ -t 0.311 -s 2 -d 3 -p cbr -e 500 -c 2 -i 11 -a 2 -x {1.0 3.1 7 ------- null}
r -t 0.312 -s 2 -d 3 -p cbr -e 1000 -c 2 -i 6 -a 2 -x {1.0 3.1 4 ------- null}
r -t 0.31328 -s 0 -d 2 -p tcp -e 1540 -c 1 -i 9 -a 1 -x {0.0 3.0 2 ------- null}
+ -t 0.31328 -s 2 -d 3 -p tcp -e 1540 -c 1 -i 9 -a 1 -x {0.0 3.0 2 ------- null}
- -t 0.314 -s 1 -d 2 -p cbr -e 500 -c 2 -i 13 -a 2 -x {1.0 3.1 9 ------- null}
h -t 0.314 -s 1 -d 2 -p cbr -e 500 -c 2 -i 13 -a 2 -x {1.0 3.1 -1 ------- null}
r -t 0.316 -s 2 -d 3 -p cbr -e 500 -c 2 -i 7 -a 2 -x {1.0 3.1 5 ------- null}
- -t 0.31944 -s 2 -d 3 -p cbr -e 1000 -c 2 -i 10 -a 2 -x {1.0 3.1 6 ------- null}
h -t 0.31944 -s 2 -d 3 -p cbr -e 1000 -c 2 -i 10 -a 2 -x {1.0 3.1 -1 ------- null}
r -t 0.324 -s 1 -d 2 -p cbr -e 1000 -c 2 -i 12 -a 2 -x {1.0 3.1 8 ------- null}
+ -t 0.324 -s 2 -d 3 -p cbr -e 1000 -c 2 -i 12 -a 2 -x {1.0 3.1 8 ------- null}
+ -t 0.325 -s 1 -d 2 -p cbr -e 1000 -c 2 -i 14 -a 2 -x {1.0 3.1 10 ------- null}
- -t 0.325 -s 1 -d 2 -p cbr -e 1000 -c 2 -i 14 -a 2 -x {1.0 3.1 10 ------- null}
h -t 0.325 -s 1 -d 2 -p cbr -e 1000 -c 2 -i 14 -a 2 -x {1.0 3.1 -1 ------- null}
+ -t 0.325 -s 1 -d 2 -p cbr -e 500 -c 2 -i 15 -a 2 -x {1.0 3.1 11 ------- null}
r -t 0.326 -s 1 -d 2 -p cbr -e 500 -c 2 -i 13 -a 2 -x {1.0 3.1 9 ------- null}
+ -t 0.326 -s 2 -d 3 -p cbr -e 500 -c 2 -i 13 -a 2 -x {1.0 3.1 9 ------- null}
d -t 0.326 -s 2 -d 3 -p cbr -e 500 -c 2 -i 13 -a 2 -x {1.0 3.1 9 ------- null}
- -t 0.32744 -s 2 -d 3 -p cbr -e 500 -c 2 -i 11 -a 2 -x {1.0 3.1 7 ------- null}
h -t 0.32744 -s 2 -d 3 -p cbr -e 500 -c 2 -i 11 -a 2 -x {1.0 3.1 -1 ------- null}
- -t 0.329 -s 1 -d 2 -p cbr -e 500 -c 2 -i 15 -a 2 -x {1.0 3.1 11 ------- null}
h -t 0.329 -s 1 -d 2 -p cbr -e 500 -c 2 -i 15 -a 2 -x {1.0 3.1 -1 ------- null}
r -t 0.32944 -s 2 -d 3 -p tcp -e 1540 -c 1 -i 8 -a 1 -x {0.0 3.0 1 ------- null}
+ -t 0.32944 -s 3 -d 2 -p ack -e 40 -c 1 -i 16 -a 1 -x {3.0 0.0 1 ------- null}
- -t 0.32944 -s 3 -d 2 -p ack -e 40 -c 1 -i 16 -a 1 -x {3.0 0.0 1 ------- null}
h -t 0.32944 -s 3 -d 2 -p ack -e 40 -c 1 -i 16 -a 1 -x {3.0 0.0 -1 ------- null}
- -t 0.33144 -s 2 -d 3 -p tcp -e 1540 -c 1 -i 9 -a 1 -x {0.0 3.0 2 ------- null}
h -t 0.33144 -s 2 -d 3 -p tcp -e 1540 -c 1 -i 9 -a 1 -x {0.0 3.0 -1 ------- null}
r -t 0.33744 -s 2 -d 3 -p cbr -e 1000 -c 2 -i 10 -a 2 -x {1.0 3.1 6 ------- null}
r -t 0.339 -s 1 -d 2 -p cbr -e 1000 -c 2 -i 14 -a 2 -x {1.0 3.1 10 ------- null}
+ -t 0.339 -s 2 -d 3 -p cbr -e 1000 -c 2 -i 14 -a 2 -x {1.0 3.1 10 ------- null}
r -t 0.33976 -s 3 -d 2 -p ack -e 40 -c 1 -i 16 -a 1 -x {3.0 0.0 1 ------- null}
+ -t 0.33976 -s 2 -d 0 -p ack -e 40 -c 1 -i 16 -a 1 -x {3.0 0.0 1 ------- null}
- -t 0.33976 -s 2 -d 0 -p ack -e 40 -c 1 -i 16 -a 1 -x {3.0 0.0 1 ------- null}
h -t 0.33976 -s 2 -d 0 -p ack -e 40 -c 1 -i 16 -a 1 -x {3.0 0.0 -1 ------- null}
+ -t 0.34 -s 1 -d 2 -p cbr -e 1000 -c 2 -i 17 -a 2 -x {1.0 3.1 12 ------- null}
- -t 0.34 -s 1 -d 2 -p cbr -e 1000 -c 2 -i 17 -a 2 -x {1.0 3.1 12 ------- null}
h -t 0.34 -s 1 -d 2 -p cbr -e 1000 -c 2 -i 17 -a 2 -x {1.0 3.1 -1 ------- null}
+ -t 0.34 -s 1 -d 2 -p cbr -e 500 -c 2 -i 18 -a 2 -x {1.0 3.1 13 ------- null}
r -t 0.341 -s 1 -d 2 -p cbr -e 500 -c 2 -i 15 -a 2 -x {1.0 3.1 11 ------- null}
+ -t 0.341 -s 2 -d 3 -p cbr -e 500 -c 2 -i 15 -a 2 -x {1.0 3.1 11 ------- null}
r -t 0.34144 -s 2 -d 3 -p cbr -e 500 -c 2 -i 11 -a 2 -x {1.0 3.1 7 ------- null}
- -t 0.34376 -s 2 -d 3 -p cbr -e 1000 -c 2 -i 12 -a 2 -x {1.0 3.1 8 ------- null}
h -t 0.34376 -s 2 -d 3 -p cbr -e 1000 -c 2 -i 12 -a 2 -x {1.0 3.1 -1 ------- null}
- -t 0.344 -s 1 -d 2 -p cbr -e 500 -c 2 -i 18 -a 2 -x {1.0 3.1 13 ------- null}
h -t 0.344 -s 1 -d 2 -p cbr -e 500 -c 2 -i 18 -a 2 -x {1.0 3.1 -1 ------- null}
r -t 0.34992 -s 2 -d 0 -p ack -e 40 -c 1 -i 16 -a 1 -x {3.0 0.0 1 ------- null}
+ -t 0.34992 -s 0 -d 2 -p tcp -e 1540 -c 1 -i 19 -a 1 -x {0.0 3.0 3 ------- null}
- -t 0.34992 -s 0 -d 2 -p tcp -e 1540 -c 1 -i 19 -a 1 -x {0.0 3.0 3 ------- null}
h -t 0.34992 -s 0 -d 2 -p tcp -e 1540 -c 1 -i 19 -a 1 -x {0.0 3.0 -1 ------- null}
+ -t 0.34992 -s 0 -d 2 -p tcp -e 1540 -c 1 -i 20 -a 1 -x {0.0 3.0 4 ------- null}
- -t 0.35176 -s 2 -d 3 -p cbr -e 1000 -c 2 -i 14 -a 2 -x {1.0 3.1 10 ------- null}
h -t 0.35176 -s 2 -d 3 -p cbr -e 1000 -c 2 -i 14 -a 2 -x {1.0 3.1 -1 ------- null}
r -t 0.35376 -s 2 -d 3 -p tcp -e 1540 -c 1 -i 9 -a 1 -x {0.0 3.0 2 ------- null}
+ -t 0.35376 -s 3 -d 2 -p ack -e 40 -c 1 -i 21 -a 1 -x {3.0 0.0 2 ------- null}
- -t 0.35376 -s 3 -d 2 -p ack -e 40 -c 1 -i 21 -a 1 -x {3.0 0.0 2 ------- null}
h -t 0.35376 -s 3 -d 2 -p ack -e 40 -c 1 -i 21 -a 1 -x {3.0 0.0 -1 ------- null}
r -t 0.354 -s 1 -d 2 -p cbr -e 1000 -c 2 -i 17 -a 2 -x {1.0 3.1 12 ------- null}
+ -t 0.354 -s 2 -d 3 -p cbr -e 1000 -c 2 -i 17 -a 2 -x {1.0 3.1 12 ------- null}
+ -t 0.355 -s 1 -d 2 -p cbr -e 1000 -c 2 -i 22 -a 2 -x {1.0 3.1 14 ------- null}
- -t 0.355 -s 1 -d 2 -p cbr -e 1000 -c 2 -i 22 -a 2 -x {1.0 3.1 14 ------- null}
h -t 0.355 -s 1 -d 2 -p cbr -e 1000 -c 2 -i 22 -a 2 -x {1.0 3.1 -1 ------- null}
+ -t 0.355 -s 1 -d 2 -p cbr -e 500 -c 2 -i 23 -a 2 -x {1.0 3.1 15 ------- null}
r -t 0.356 -s 1 -d 2 -p cbr -e 500 -c 2 -i 18 -a 2 -x {1.0 3.1 13 ------- null}
+ -t 0.356 -s 2 -d 3 -p cbr -e 500 -c 2 -i 18 -a 2 -x {1.0 3.1 13 ------- null}
- -t 0.35608 -s 0 -d 2 -p tcp -e 1540 -c 1 -i 20 -a 1 -x {0.0 3.0 4 ------- null}
h -t 0.35608 -s 0 -d 2 -p tcp -e 1540 -c 1 -i 20 -a 1 -x {0.0 3.0 -1 ------- null}
- -t 0.359 -s 1 -d 2 -p cbr -e 500 -c 2 -i 23 -a 2 -x {1.0 3.1 15 ------- null}
h -t 0.359 -s 1 -d 2 -p cbr -e 500 -c 2 -i 23 -a 2 -x {1.0 3.1 -1 ------- null}
- -t 0.35976 -s 2 -d 3 -p cbr -e 500 -c 2 -i 15 -a 2 -x {1.0 3.1 11 ------- null}
h -t 0.35976 -s 2 -d 3 -p cbr -e 500 -c 2 -i 15 -a 2 -x {1.0 3.1 -1 ------- null}
r -t 0.36176 -s 2 -d 3 -p cbr -e 1000 -c 2 -i 12 -a 2 -x {1.0 3.1 8 ------- null}
- -t 0.36376 -s 2 -d 3 -p cbr -e 1000 -c 2 -i 17 -a 2 -x {1.0 3.1 12 ------- null}
h -t 0.36376 -s 2 -d 3 -p cbr -e 1000 -c 2 -i 17 -a 2 -x {1.0 3.1 -1 ------- null}
r -t 0.36408 -s 3 -d 2 -p ack -e 40 -c 1 -i 21 -a 1 -x {3.0 0.0 2 ------- null}
+ -t 0.36408 -s 2 -d 0 -p ack -e 40 -c 1 -i 21 -a 1 -x {3.0 0.0 2 ------- null}
- -t 0.36408 -s 2 -d 0 -p ack -e 40 -c 1 -i 21 -a 1 -x {3.0 0.0 2 ------- null}
h -t 0.36408 -s 2 -d 0 -p ack -e 40 -c 1 -i 21 -a 1 -x {3.0 0.0 -1 ------- null}
r -t 0.36608 -s 0 -d 2 -p tcp -e 1540 -c 1 -i 19 -a 1 -x {0.0 3.0 3 ------- null}
+ -t 0.36608 -s 2 -d 3 -p tcp -e 1540 -c 1 -i 19 -a 1 -x {0.0 3.0 3 ------- null}
r -t 0.369 -s 1 -d 2 -p cbr -e 1000 -c 2 -i 22 -a 2 -x {1.0 3.1 14 ------- null}
+ -t 0.369 -s 2 -d 3 -p cbr -e 1000 -c 2 -i 22 -a 2 -x {1.0 3.1 14 ------- null}
r -t 0.36976 -s 2 -d 3 -p cbr -e 1000 -c 2 -i 14 -a 2 -x {1.0 3.1 10 ------- null}
+ -t 0.37 -s 1 -d 2 -p cbr -e 1000 -c 2 -i 24 -a 2 -x {1.0 3.1 16 ------- null}
- -t 0.37 -s 1 -d 2 -p cbr -e 1000 -c 2 -i 24 -a 2 -x {1.0 3.1 16 ------- null}
h -t 0.37 -s 1 -d 2 -p cbr -e 1000 -c 2 -i 24 -a 2 -x {1.0 3.1 -1 ------- null}
+ -t 0.37 -s 1 -d 2 -p cbr -e 500 -c 2 -i 25 -a 2 -x {1.0 3.1 17 ------- null}
r -t 0.371 -s 1 -d 2 -p cbr -e 500 -c 2 -i 23 -a 2 -x {1.0 3.1 15 ------- null}
+ -t 0.371 -s 2 -d 3 -p cbr -e 500 -c 2 -i 23 -a 2 -x {1.0 3.1 15 ------- null}
d -t 0.371 -s 2 -d 3 -p cbr -e 500 -c 2 -i 23 -a 2 -x {1.0 3.1 15 ------- null}
- -t 0.37176 -s 2 -d 3 -p cbr -e 500 -c 2 -i 18 -a 2 -x {1.0 3.1 13 ------- null}
h -t 0.37176 -s 2 -d 3 -p cbr -e 500 -c 2 -i 18 -a 2 -x {1.0 3.1 -1 ------- null}
r -t 0.37224 -s 0 -d 2 -p tcp -e 1540 -c 1 -i 20 -a 1 -x {0.0 3.0 4 ------- null}
+ -t 0.37224 -s 2 -d 3 -p tcp -e 1540 -c 1 -i 20 -a 1 -x {0.0 3.0 4 ------- null}
r -t 0.37376 -s 2 -d 3 -p cbr -e 500 -c 2 -i 15 -a 2 -x {1.0 3.1 11 ------- null}
- -t 0.374 -s 1 -d 2 -p cbr -e 500 -c 2 -i 25 -a 2 -x {1.0 3.1 17 ------- null}
h -t 0.374 -s 1 -d 2 -p cbr -e 500 -c 2 -i 25 -a 2 -x {1.0 3.1 -1 ------- null}
r -t 0.37424 -s 2 -d 0 -p ack -e 40 -c 1 -i 21 -a 1 -x {3.0 0.0 2 ------- null}
+ -t 0.37424 -s 0 -d 2 -p tcp -e 1540 -c 1 -i 26 -a 1 -x {0.0 3.0 5 ------- null}
- -t 0.37424 -s 0 -d 2 -p tcp -e 1540 -c 1 -i 26 -a 1 -x {0.0 3.0 5 ------- null}
h -t 0.37424 -s 0 -d 2 -p tcp -e 1540 -c 1 -i 26 -a 1 -x {0.0 3.0 -1 ------- null}
+ -t 0.37424 -s 0 -d 2 -p tcp -e 1540 -c 1 -i 27 -a 1 -x {0.0 3.0 6 ------- null}
- -t 0.37576 -s 2 -d 3 -p tcp -e 1540 -c 1 -i 19 -a 1 -x {0.0 3.0 3 ------- null}
h -t 0.37576 -s 2 -d 3 -p tcp -e 1540 -c 1 -i 19 -a 1 -x {0.0 3.0 -1 ------- null}
- -t 0.3804 -s 0 -d 2 -p tcp -e 1540 -c 1 -i 27 -a 1 -x {0.0 3.0 6 ------- null}
h -t 0.3804 -s 0 -d 2 -p tcp -e 1540 -c 1 -i 27 -a 1 -x {0.0 3.0 -1 ------- null}
r -t 0.38176 -s 2 -d 3 -p cbr -e 1000 -c 2 -i 17 -a 2 -x {1.0 3.1 12 ------- null}
r -t 0.384 -s 1 -d 2 -p cbr -e 1000 -c 2 -i 24 -a 2 -x {1.0 3.1 16 ------- null}
+ -t 0.384 -s 2 -d 3 -p cbr -e 1000 -c 2 -i 24 -a 2 -x {1.0 3.1 16 ------- null}
+ -t 0.385 -s 1 -d 2 -p cbr -e 1000 -c 2 -i 28 -a 2 -x {1.0 3.1 18 ------- null}
- -t 0.385 -s 1 -d 2 -p cbr -e 1000 -c 2 -i 28 -a 2 -x {1.0 3.1 18 ------- null}
h -t 0.385 -s 1 -d 2 -p cbr -e 1000 -c 2 -i 28 -a 2 -x {1.0 3.1 -1 ------- null}
+ -t 0.385 -s 1 -d 2 -p cbr -e 500 -c 2 -i 29 -a 2 -x {1.0 3.1 19 ------- null}
r -t 0.38576 -s 2 -d 3 -p cbr -e 500 -c 2 -i 18 -a 2 -x {1.0 3.1 13 ------- null}
r -t 0.386 -s 1 -d 2 -p cbr -e 500 -c 2 -i 25 -a 2 -x {1.0 3.1 17 ------- null}
+ -t 0.386 -s 2 -d 3 -p cbr -e 500 -c 2 -i 25 -a 2 -x {1.0 3.1 17 ------- null}
d -t 0.386 -s 2 -d 3 -p cbr -e 500 -c 2 -i 25 -a 2 -x {1.0 3.1 17 ------- null}
- -t 0.38808 -s 2 -d 3 -p cbr -e 1000 -c 2 -i 22 -a 2 -x {1.0 3.1 14 ------- null}
h -t 0.38808 -s 2 -d 3 -p cbr -e 1000 -c 2 -i 22 -a 2 -x {1.0 3.1 -1 ------- null}
- -t 0.389 -s 1 -d 2 -p cbr -e 500 -c 2 -i 29 -a 2 -x {1.0 3.1 19 ------- null}
h -t 0.389 -s 1 -d 2 -p cbr -e 500 -c 2 -i 29 -a 2 -x {1.0 3.1 -1 ------- null}
r -t 0.3904 -s 0 -d 2 -p tcp -e 1540 -c 1 -i 26 -a 1 -x {0.0 3.0 5 ------- null}
+ -t 0.3904 -s 2 -d 3 -p tcp -e 1540 -c 1 -i 26 -a 1 -x {0.0 3.0 5 ------- null}
- -t 0.39608 -s 2 -d 3 -p tcp -e 1540 -c 1 -i 20 -a 1 -x {0.0 3.0 4 ------- null}
h -t 0.39608 -s 2 -d 3 -p tcp -e 1540 -c 1 -i 20 -a 1 -x {0.0 3.0 -1 ------- null}
r -t 0.39656 -s 0 -d 2 -p tcp -e 1540 -c 1 -i 27 -a 1 -x {0.0 3.0 6 ------- null}
+ -t 0.39656 -s 2 -d 3 -p tcp -e 1540 -c 1 -i 27 -a 1 -x {0.0 3.0 6 ------- null}
r -t 0.39808 -s 2 -d 3 -p tcp -e 1540 -c 1 -i 19 -a 1 -x {0.0 3.0 3 ------- null}
+ -t 0.39808 -s 3 -d 2 -p ack -e 40 -c 1 -i 30 -a 1 -x {3.0 0.0 3 ------- null}
- -t 0.39808 -s 3 -d 2 -p ack -e 40 -c 1 -i 30 -a 1 -x {3.0 0.0 3 ------- null}
h -t 0.39808 -s 3 -d 2 -p ack -e 40 -c 1 -i 30 -a 1 -x {3.0 0.0 -1 ------- null}
r -t 0.399 -s 1 -d 2 -p cbr -e 1000 -c 2 -i 28 -a 2 -x {1.0 3.1 18 ------- null}
+ -t 0.399 -s 2 -d 3 -p cbr -e 1000 -c 2 -i 28 -a 2 -x {1.0 3.1 18 ------- null}
d -t 0.399 -s 2 -d 3 -p cbr -e 1000 -c 2 -i 28 -a 2 -x {1.0 3.1 18 ------- null}
+ -t 0.4 -s 1 -d 2 -p cbr -e 1000 -c 2 -i 31 -a 2 -x {1.0 3.1 20 ------- null}
- -t 0.4 -s 1 -d 2 -p cbr -e 1000 -c 2 -i 31 -a 2 -x {1.0 3.1 20 ------- null}
h -t 0.4 -s 1 -d 2 -p cbr -e 1000 -c 2 -i 31 -a 2 -x {1.0 3.1 -1 ------- null}
+ -t 0.4 -s 1 -d 2 -p cbr -e 500 -c 2 -i 32 -a 2 -x {1.0 3.1 21 ------- null}
r -t 0.401 -s 1 -d 2 -p cbr -e 500 -c 2 -i 29 -a 2 -x {1.0 3.1 19 ------- null}
+ -t 0.401 -s 2 -d 3 -p cbr -e 500 -c 2 -i 29 -a 2 -x {1.0 3.1 19 ------- null}
d -t 0.401 -s 2 -d 3 -p cbr -e 500 -c 2 -i 29 -a 2 -x {1.0 3.1 19 ------- null}
- -t 0.404 -s 1 -d 2 -p cbr -e 500 -c 2 -i 32 -a 2 -x {1.0 3.1 21 ------- null}
h -t 0.404 -s 1 -d 2 -p cbr -e 500 -c 2 -i 32 -a 2 -x {1.0 3.1 -1 ------- null}
r -t 0.40608 -s 2 -d 3 -p cbr -e 1000 -c 2 -i 22 -a 2 -x {1.0 3.1 14 ------- null}
- -t 0.4084 -s 2 -d 3 -p cbr -e 1000 -c 2 -i 24 -a 2 -x {1.0 3.1 16 ------- null}
h -t 0.4084 -s 2 -d 3 -p cbr -e 1000 -c 2 -i 24 -a 2 -x {1.0 3.1 -1 ------- null}
r -t 0.4084 -s 3 -d 2 -p ack -e 40 -c 1 -i 30 -a 1 -x {3.0 0.0 3 ------- null}
+ -t 0.4084 -s 2 -d 0 -p ack -e 40 -c 1 -i 30 -a 1 -x {3.0 0.0 3 ------- null}
- -t 0.4084 -s 2 -d 0 -p ack -e 40 -c 1 -i 30 -a 1 -x {3.0 0.0 3 ------- null}
h -t 0.4084 -s 2 -d 0 -p ack -e 40 -c 1 -i 30 -a 1 -x {3.0 0.0 -1 ------- null}
r -t 0.414 -s 1 -d 2 -p cbr -e 1000 -c 2 -i 31 -a 2 -x {1.0 3.1 20 ------- null}
+ -t 0.414 -s 2 -d 3 -p cbr -e 1000 -c 2 -i 31 -a 2 -x {1.0 3.1 20 ------- null}
+ -t 0.415 -s 1 -d 2 -p cbr -e 1000 -c 2 -i 33 -a 2 -x {1.0 3.1 22 ------- null}
- -t 0.415 -s 1 -d 2 -p cbr -e 1000 -c 2 -i 33 -a 2 -x {1.0 3.1 22 ------- null}
h -t 0.415 -s 1 -d 2 -p cbr -e 1000 -c 2 -i 33 -a 2 -x {1.0 3.1 -1 ------- null}
+ -t 0.415 -s 1 -d 2 -p cbr -e 500 -c 2 -i 34 -a 2 -x {1.0 3.1 23 ------- null}
r -t 0.416 -s 1 -d 2 -p cbr -e 500 -c 2 -i 32 -a 2 -x {1.0 3.1 21 ------- null}
+ -t 0.416 -s 2 -d 3 -p cbr -e 500 -c 2 -i 32 -a 2 -x {1.0 3.1 21 ------- null}
d -t 0.416 -s 2 -d 3 -p cbr -e 500 -c 2 -i 32 -a 2 -x {1.0 3.1 21 ------- null}
- -t 0.4164 -s 2 -d 3 -p tcp -e 1540 -c 1 -i 26 -a 1 -x {0.0 3.0 5 ------- null}
h -t 0.4164 -s 2 -d 3 -p tcp -e 1540 -c 1 -i 26 -a 1 -x {0.0 3.0 -1 ------- null}
r -t 0.4184 -s 2 -d 3 -p tcp -e 1540 -c 1 -i 20 -a 1 -x {0.0 3.0 4 ------- null}
+ -t 0.4184 -s 3 -d 2 -p ack -e 40 -c 1 -i 35 -a 1 -x {3.0 0.0 4 ------- null}
- -t 0.4184 -s 3 -d 2 -p ack -e 40 -c 1 -i 35 -a 1 -x {3.0 0.0 4 ------- null}
h -t 0.4184 -s 3 -d 2 -p ack -e 40 -c 1 -i 35 -a 1 -x {3.0 0.0 -1 ------- null}
r -t 0.41856 -s 2 -d 0 -p ack -e 40 -c 1 -i 30 -a 1 -x {3.0 0.0 3 ------- null}
+ -t 0.41856 -s 0 -d 2 -p tcp -e 1540 -c 1 -i 36 -a 1 -x {0.0 3.0 7 ------- null}
- -t 0.41856 -s 0 -d 2 -p tcp -e 1540 -c 1 -i 36 -a 1 -x {0.0 3.0 7 ------- null}
h -t 0.41856 -s 0 -d 2 -p tcp -e 1540 -c 1 -i 36 -a 1 -x {0.0 3.0 -1 ------- null}
+ -t 0.41856 -s 0 -d 2 -p tcp -e 1540 -c 1 -i 37 -a 1 -x {0.0 3.0 8 ------- null}
- -t 0.419 -s 1 -d 2 -p cbr -e 500 -c 2 -i 34 -a 2 -x {1.0 3.1 23 ------- null}
h -t 0.419 -s 1 -d 2 -p cbr -e 500 -c 2 -i 34 -a 2 -x {1.0 3.1 -1 ------- null}
- -t 0.42472 -s 0 -d 2 -p tcp -e 1540 -c 1 -i 37 -a 1 -x {0.0 3.0 8 ------- null}
h -t 0.42472 -s 0 -d 2 -p tcp -e 1540 -c 1 -i 37 -a 1 -x {0.0 3.0 -1 ------- null}
r -t 0.4264 -s 2 -d 3 -p cbr -e 1000 -c 2 -i 24 -a 2 -x {1.0 3.1 16 ------- null}
- -t 0.42872 -s 2 -d 3 -p tcp -e 1540 -c 1 -i 27 -a 1 -x {0.0 3.0 6 ------- null}
h -t 0.42872 -s 2 -d 3 -p tcp -e 1540 -c 1 -i 27 -a 1 -x {0.0 3.0 -1 ------- null}
r -t 0.42872 -s 3 -d 2 -p ack -e 40 -c 1 -i 35 -a 1 -x {3.0 0.0 4 ------- null}
+ -t 0.42872 -s 2 -d 0 -p ack -e 40 -c 1 -i 35 -a 1 -x {3.0 0.0 4 ------- null}
- -t 0.42872 -s 2 -d 0 -p ack -e 40 -c 1 -i 35 -a 1 -x {3.0 0.0 4 ------- null}
h -t 0.42872 -s 2 -d 0 -p ack -e 40 -c 1 -i 35 -a 1 -x {3.0 0.0 -1 ------- null}
r -t 0.429 -s 1 -d 2 -p cbr -e 1000 -c 2 -i 33 -a 2 -x {1.0 3.1 22 ------- null}
+ -t 0.429 -s 2 -d 3 -p cbr -e 1000 -c 2 -i 33 -a 2 -x {1.0 3.1 22 ------- null}
+ -t 0.43 -s 1 -d 2 -p cbr -e 1000 -c 2 -i 38 -a 2 -x {1.0 3.1 24 ------- null}
- -t 0.43 -s 1 -d 2 -p cbr -e 1000 -c 2 -i 38 -a 2 -x {1.0 3.1 24 ------- null}
h -t 0.43 -s 1 -d 2 -p cbr -e 1000 -c 2 -i 38 -a 2 -x {1.0 3.1 -1 ------- null}
+ -t 0.43 -s 1 -d 2 -p cbr -e 500 -c 2 -i 39 -a 2 -x {1.0 3.1 25 ------- null}
r -t 0.431 -s 1 -d 2 -p cbr -e 500 -c 2 -i 34 -a 2 -x {1.0 3.1 23 ------- null}
+ -t 0.431 -s 2 -d 3 -p cbr -e 500 -c 2 -i 34 -a 2 -x {1.0 3.1 23 ------- null}
- -t 0.434 -s 1 -d 2 -p cbr -e 500 -c 2 -i 39 -a 2 -x {1.0 3.1 25 ------- null}
h -t 0.434 -s 1 -d 2 -p cbr -e 500 -c 2 -i 39 -a 2 -x {1.0 3.1 -1 ------- null}
r -t 0.43472 -s 0 -d 2 -p tcp -e 1540 -c 1 -i 36 -a 1 -x {0.0 3.0 7 ------- null}
+ -t 0.43472 -s 2 -d 3 -p tcp -e 1540 -c 1 -i 36 -a 1 -x {0.0 3.0 7 ------- null}
d -t 0.43472 -s 2 -d 3 -p tcp -e 1540 -c 1 -i 36 -a 1 -x {0.0 3.0 7 ------- null}
r -t 0.43872 -s 2 -d 3 -p tcp -e 1540 -c 1 -i 26 -a 1 -x {0.0 3.0 5 ------- null}
+ -t 0.43872 -s 3 -d 2 -p ack -e 40 -c 1 -i 40 -a 1 -x {3.0 0.0 5 ------- null}
- -t 0.43872 -s 3 -d 2 -p ack -e 40 -c 1 -i 40 -a 1 -x {3.0 0.0 5 ------- null}
h -t 0.43872 -s 3 -d 2 -p ack -e 40 -c 1 -i 40 -a 1 -x {3.0 0.0 -1 ------- null}
r -t 0.43888 -s 2 -d 0 -p ack -e 40 -c 1 -i 35 -a 1 -x {3.0 0.0 4 ------- null}
+ -t 0.43888 -s 0 -d 2 -p tcp -e 1540 -c 1 -i 41 -a 1 -x {0.0 3.0 9 ------- null}
- -t 0.43888 -s 0 -d 2 -p tcp -e 1540 -c 1 -i 41 -a 1 -x {0.0 3.0 9 ------- null}
h -t 0.43888 -s 0 -d 2 -p tcp -e 1540 -c 1 -i 41 -a 1 -x {0.0 3.0 -1 ------- null}
+ -t 0.43888 -s 0 -d 2 -p tcp -e 1540 -c 1 -i 42 -a 1 -x {0.0 3.0 10 ------- null}
r -t 0.44088 -s 0 -d 2 -p tcp -e 1540 -c 1 -i 37 -a 1 -x {0.0 3.0 8 ------- null}
+ -t 0.44088 -s 2 -d 3 -p tcp -e 1540 -c 1 -i 37 -a 1 -x {0.0 3.0 8 ------- null}
d -t 0.44088 -s 2 -d 3 -p tcp -e 1540 -c 1 -i 37 -a 1 -x {0.0 3.0 8 ------- null}
- -t 0.44104 -s 2 -d 3 -p cbr -e 1000 -c 2 -i 31 -a 2 -x {1.0 3.1 20 ------- null}
h -t 0.44104 -s 2 -d 3 -p cbr -e 1000 -c 2 -i 31 -a 2 -x {1.0 3.1 -1 ------- null}
r -t 0.444 -s 1 -d 2 -p cbr -e 1000 -c 2 -i 38 -a 2 -x {1.0 3.1 24 ------- null}
+ -t 0.444 -s 2 -d 3 -p cbr -e 1000 -c 2 -i 38 -a 2 -x {1.0 3.1 24 ------- null}
+ -t 0.445 -s 1 -d 2 -p cbr -e 1000 -c 2 -i 43 -a 2 -x {1.0 3.1 26 ------- null}
- -t 0.445 -s 1 -d 2 -p cbr -e 1000 -c 2 -i 43 -a 2 -x {1.0 3.1 26 ------- null}
h -t 0.445 -s 1 -d 2 -p cbr -e 1000 -c 2 -i 43 -a 2 -x {1.0 3.1 -1 ------- null}
+ -t 0.445 -s 1 -d 2 -p cbr -e 500 -c 2 -i 44 -a 2 -x {1.0 3.1 27 ------- null}
- -t 0.44504 -s 0 -d 2 -p tcp -e 1540 -c 1 -i 42 -a 1 -x {0.0 3.0 10 ------- null}
h -t 0.44504 -s 0 -d 2 -p tcp -e 1540 -c 1 -i 42 -a 1 -x {0.0 3.0 -1 ------- null}
r -t 0.446 -s 1 -d 2 -p cbr -e 500 -c 2 -i 39 -a 2 -x {1.0 3.1 25 ------- null}
+ -t 0.446 -s 2 -d 3 -p cbr -e 500 -c 2 -i 39 -a 2 -x {1.0 3.1 25 ------- null}
d -t 0.446 -s 2 -d 3 -p cbr -e 500 -c 2 -i 39 -a 2 -x {1.0 3.1 25 ------- null}
- -t 0.449 -s 1 -d 2 -p cbr -e 500 -c 2 -i 44 -a 2 -x {1.0 3.1 27 ------- null}
h -t 0.449 -s 1 -d 2 -p cbr -e 500 -c 2 -i 44 -a 2 -x {1.0 3.1 -1 ------- null}
r -t 0.44904 -s 3 -d 2 -p ack -e 40 -c 1 -i 40 -a 1 -x {3.0 0.0 5 ------- null}
+ -t 0.44904 -s 2 -d 0 -p ack -e 40 -c 1 -i 40 -a 1 -x {3.0 0.0 5 ------- null}
- -t 0.44904 -s 2 -d 0 -p ack -e 40 -c 1 -i 40 -a 1 -x {3.0 0.0 5 ------- null}
h -t 0.44904 -s 2 -d 0 -p ack -e 40 -c 1 -i 40 -a 1 -x {3.0 0.0 -1 ------- null}
- -t 0.44904 -s 2 -d 3 -p cbr -e 1000 -c 2 -i 33 -a 2 -x {1.0 3.1 22 ------- null}
h -t 0.44904 -s 2 -d 3 -p cbr -e 1000 -c 2 -i 33 -a 2 -x {1.0 3.1 -1 ------- null}
r -t 0.45104 -s 2 -d 3 -p tcp -e 1540 -c 1 -i 27 -a 1 -x {0.0 3.0 6 ------- null}
+ -t 0.45104 -s 3 -d 2 -p ack -e 40 -c 1 -i 45 -a 1 -x {3.0 0.0 6 ------- null}
- -t 0.45104 -s 3 -d 2 -p ack -e 40 -c 1 -i 45 -a 1 -x {3.0 0.0 6 ------- null}
h -t 0.45104 -s 3 -d 2 -p ack -e 40 -c 1 -i 45 -a 1 -x {3.0 0.0 -1 ------- null}
r -t 0.45504 -s 0 -d 2 -p tcp -e 1540 -c 1 -i 41 -a 1 -x {0.0 3.0 9 ------- null}
+ -t 0.45504 -s 2 -d 3 -p tcp -e 1540 -c 1 -i 41 -a 1 -x {0.0 3.0 9 ------- null}
- -t 0.45704 -s 2 -d 3 -p cbr -e 500 -c 2 -i 34 -a 2 -x {1.0 3.1 23 ------- null}
h -t 0.45704 -s 2 -d 3 -p cbr -e 500 -c 2 -i 34 -a 2 -x {1.0 3.1 -1 ------- null}
r -t 0.459 -s 1 -d 2 -p cbr -e 1000 -c 2 -i 43 -a 2 -x {1.0 3.1 26 ------- null}
+ -t 0.459 -s 2 -d 3 -p cbr -e 1000 -c 2 -i 43 -a 2 -x {1.0 3.1 26 ------- null}
r -t 0.45904 -s 2 -d 3 -p cbr -e 1000 -c 2 -i 31 -a 2 -x {1.0 3.1 20 ------- null}
r -t 0.4592 -s 2 -d 0 -p ack -e 40 -c 1 -i 40 -a 1 -x {3.0 0.0 5 ------- null}
+ -t 0.4592 -s 0 -d 2 -p tcp -e 1540 -c 1 -i 46 -a 1 -x {0.0 3.0 11 ------- null}
- -t 0.4592 -s 0 -d 2 -p tcp -e 1540 -c 1 -i 46 -a 1 -x {0.0 3.0 11 ------- null}
h -t 0.4592 -s 0 -d 2 -p tcp -e 1540 -c 1 -i 46 -a 1 -x {0.0 3.0 -1 ------- null}
+ -t 0.4592 -s 0 -d 2 -p tcp -e 1540 -c 1 -i 47 -a 1 -x {0.0 3.0 12 ------- null}
+ -t 0.46 -s 1 -d 2 -p cbr -e 1000 -c 2 -i 48 -a 2 -x {1.0 3.1 28 ------- null}
- -t 0.46 -s 1 -d 2 -p cbr -e 1000 -c 2 -i 48 -a 2 -x {1.0 3.1 28 ------- null}
h -t 0.46 -s 1 -d 2 -p cbr -e 1000 -c 2 -i 48 -a 2 -x {1.0 3.1 -1 ------- null}
+ -t 0.46 -s 1 -d 2 -p cbr -e 500 -c 2 -i 49 -a 2 -x {1.0 3.1 29 ------- null}
r -t 0.461 -s 1 -d 2 -p cbr -e 500 -c 2 -i 44 -a 2 -x {1.0 3.1 27 ------- null}
+ -t 0.461 -s 2 -d 3 -p cbr -e 500 -c 2 -i 44 -a 2 -x {1.0 3.1 27 ------- null}
d -t 0.461 -s 2 -d 3 -p cbr -e 500 -c 2 -i 44 -a 2 -x {1.0 3.1 27 ------- null}
- -t 0.46104 -s 2 -d 3 -p cbr -e 1000 -c 2 -i 38 -a 2 -x {1.0 3.1 24 ------- null}
h -t 0.46104 -s 2 -d 3 -p cbr -e 1000 -c 2 -i 38 -a 2 -x {1.0 3.1 -1 ------- null}
r -t 0.4612 -s 0 -d 2 -p tcp -e 1540 -c 1 -i 42 -a 1 -x {0.0 3.0 10 ------- null}
+ -t 0.4612 -s 2 -d 3 -p tcp -e 1540 -c 1 -i 42 -a 1 -x {0.0 3.0 10 ------- null}
r -t 0.46136 -s 3 -d 2 -p ack -e 40 -c 1 -i 45 -a 1 -x {3.0 0.0 6 ------- null}
+ -t 0.46136 -s 2 -d 0 -p ack -e 40 -c 1 -i 45 -a 1 -x {3.0 0.0 6 ------- null}
- -t 0.46136 -s 2 -d 0 -p ack -e 40 -c 1 -i 45 -a 1 -x {3.0 0.0 6 ------- null}
h -t 0.46136 -s 2 -d 0 -p ack -e 40 -c 1 -i 45 -a 1 -x {3.0 0.0 -1 ------- null}
- -t 0.464 -s 1 -d 2 -p cbr -e 500 -c 2 -i 49 -a 2 -x {1.0 3.1 29 ------- null}
h -t 0.464 -s 1 -d 2 -p cbr -e 500 -c 2 -i 49 -a 2 -x {1.0 3.1 -1 ------- null}
- -t 0.46536 -s 0 -d 2 -p tcp -e 1540 -c 1 -i 47 -a 1 -x {0.0 3.0 12 ------- null}
h -t 0.46536 -s 0 -d 2 -p tcp -e 1540 -c 1 -i 47 -a 1 -x {0.0 3.0 -1 ------- null}
r -t 0.46704 -s 2 -d 3 -p cbr -e 1000 -c 2 -i 33 -a 2 -x {1.0 3.1 22 ------- null}
- -t 0.46904 -s 2 -d 3 -p tcp -e 1540 -c 1 -i 41 -a 1 -x {0.0 3.0 9 ------- null}
h -t 0.46904 -s 2 -d 3 -p tcp -e 1540 -c 1 -i 41 -a 1 -x {0.0 3.0 -1 ------- null}
r -t 0.47104 -s 2 -d 3 -p cbr -e 500 -c 2 -i 34 -a 2 -x {1.0 3.1 23 ------- null}
r -t 0.47152 -s 2 -d 0 -p ack -e 40 -c 1 -i 45 -a 1 -x {3.0 0.0 6 ------- null}
+ -t 0.47152 -s 0 -d 2 -p tcp -e 1540 -c 1 -i 50 -a 1 -x {0.0 3.0 13 ------- null}
+ -t 0.47152 -s 0 -d 2 -p tcp -e 1540 -c 1 -i 51 -a 1 -x {0.0 3.0 14 ------- null}
- -t 0.47152 -s 0 -d 2 -p tcp -e 1540 -c 1 -i 50 -a 1 -x {0.0 3.0 13 ------- null}
h -t 0.47152 -s 0 -d 2 -p tcp -e 1540 -c 1 -i 50 -a 1 -x {0.0 3.0 -1 ------- null}
r -t 0.474 -s 1 -d 2 -p cbr -e 1000 -c 2 -i 48 -a 2 -x {1.0 3.1 28 ------- null}
+ -t 0.474 -s 2 -d 3 -p cbr -e 1000 -c 2 -i 48 -a 2 -x {1.0 3.1 28 ------- null}
+ -t 0.475 -s 1 -d 2 -p cbr -e 1000 -c 2 -i 52 -a 2 -x {1.0 3.1 30 ------- null}
- -t 0.475 -s 1 -d 2 -p cbr -e 1000 -c 2 -i 52 -a 2 -x {1.0 3.1 30 ------- null}
h -t 0.475 -s 1 -d 2 -p cbr -e 1000 -c 2 -i 52 -a 2 -x {1.0 3.1 -1 ------- null}
+ -t 0.475 -s 1 -d 2 -p cbr -e 500 -c 2 -i 53 -a 2 -x {1.0 3.1 31 ------- null}
r -t 0.47536 -s 0 -d 2 -p tcp -e 1540 -c 1 -i 46 -a 1 -x {0.0 3.0 11 ------- null}
+ -t 0.47536 -s 2 -d 3 -p tcp -e 1540 -c 1 -i 46 -a 1 -x {0.0 3.0 11 ------- null}