V -t * -v 1.0a5 -a 0
A -t * -n 1 -p 0 -o 0xffffffff -c 31 -a 1
A -t * -h 1 -m 2147483647 -s 0
c -t * -i 4 -n yellow
c -t * -i 1 -n blue
c -t * -i 2 -n red
c -t * -i 3 -n green
n -t * -a 0 -s 0 -S UP -v circle -c black -i black
n -t * -a 1 -s 1 -S UP -v circle -c black -i black
n -t * -a 2 -s 2 -S UP -v circle -c black -i black
n -t * -a 3 -s 3 -S UP -v circle -c black -i black
l -t * -s 0 -d 2 -S UP -r 2000000 -D 0.01 -c black -o right-down
l -t * -s 1 -d 2 -S UP -r 2000000 -D 0.01 -c black -o right-up
l -t * -s 2 -d 3 -S UP -r 1000000 -D 0.01 -c black -o right
q -t * -s 3 -d 2 -a 0.5
q -t * -s 2 -d 3 -a 0.5
+ -t 0.25 -s 0 -d 2 -p tcp -e 40 -c 1 -i 0 -a 1 -x {0.0 3.0 0 ------- null}
- -t 0.25 -s 0 -d 2 -p tcp -e 40 -c 1 -i 0 -a 1 -x {0.0 3.0 0 ------- null}
h -t 0.25 -s 0 -d 2 -p tcp -e 40 -c 1 -i 0 -a 1 -x {0.0 3.0 -1 ------- null}
+ -t 0.25 -s 1 -d 2 -p cbr -e 1000 -c 2 -i 1 -a 2 -x {1.0 3.1 0 ------- null}
- -t 0.25 -s 1 -d 2 -p cbr -e 1000 -c 2 -i 1 -a 2 -x {1.0 3.1 0 ------- null}
h -t 0.25 -s 1 -d 2 -p cbr -e 1000 -c 2 -i 1 -a 2 -x {1.0 3.1 -1 ------- null}
+ -t 0.25 -s 1 -d 2 -p cbr -e 500 -c 2 -i 2 -a 2 -x {1.0 3.1 1 ------- null}
- -t 0.254 -s 1 -d 2 -p cbr -e 500 -c 2 -i 2 -a 2 -x {1.0 3.1 1 ------- null}
h -t 0.254 -s 1 -d 2 -p cbr -e 500 -c 2 -i 2 -a 2 -x {1.0 3.1 -1 ------- null}
r -t 0.26016 -s 0 -d 2 -p tcp -e 40 -c 1 -i 0 -a 1 -x {0.0 3.0 0 ------- null}
+ -t 0.26016 -s 2 -d 3 -p tcp -e 40 -c 1 -i 0 -a 1 -x {0.0 3.0 0 ------- null}
- -t 0.26016 -s 2 -d 3 -p tcp -e 40 -c 1 -i 0 -a 1 -x {0.0 3.0 0 ------- null}
h -t 0.26016 -s 2 -d 3 -p tcp -e 40 -c 1 -i 0 -a 1 -x {0.0 3.0 -1 ------- null}
r -t 0.264 -s 1 -d 2 -p cbr -e 1000 -c 2 -i 1 -a 2 -x {1.0 3.1 0 ------- null}
+ -t 0.264 -s 2 -d 3 -p cbr -e 1000 -c 2 -i 1 -a 2 -x {1.0 3.1 0 ------- null}
- -t 0.264 -s 2 -d 3 -p cbr -e 1000 -c 2 -i 1 -a 2 -x {1.0 3.1 0 ------- null}
h -t 0.264 -s 2 -d 3 -p cbr -e 1000 -c 2 -i 1 -a 2 -x {1.0 3.1 -1 ------- null}
r -t 0.266 -s 1 -d 2 -p cbr -e 500 -c 2 -i 2 -a 2 -x {1.0 3.1 1 ------- null}
+ -t 0.266 -s 2 -d 3 -p cbr -e 500 -c 2 -i 2 -a 2 -x {1.0 3.1 1 ------- null}
+ -t 0.27 -s 1 -d 2 -p cbr -e 1000 -c 2 -i 3 -a 2 -x {1.0 3.1 2 ------- null}
- -t 0.27 -s 1 -d 2 -p cbr -e 1000 -c 2 -i 3 -a 2 -x {1.0 3.1 2 ------- null}
h -t 0.27 -s 1 -d 2 -p cbr -e 1000 -c 2 -i 3 -a 2 -x {1.0 3.1 -1 ------- null}
+ -t 0.27 -s 1 -d 2 -p cbr -e 500 -c 2 -i 4 -a 2 -x {1.0 3.1 3 ------- null}
r -t 0.27048 -s 2 -d 3 -p tcp -e 40 -c 1 -i 0 -a 1 -x {0.0 3.0 0 ------- null}
+ -t 0.27048 -s 3 -d 2 -p ack -e 40 -c 1 -i 5 -a 1 -x {3.0 0.0 0 ------- null}
- -t 0.27048 -s 3 -d 2 -p ack -e 40 -c 1 -i 5 -a 1 -x {3.0 0.0 0 ------- null}
h -t 0.27048 -s 3 -d 2 -p ack -e 40 -c 1 -i 5 -a 1 -x {3.0 0.0 -1 ------- null}
- -t 0.272 -s 2 -d 3 -p cbr -e 500 -c 2 -i 2 -a 2 -x {1.0 3.1 1 ------- null}
h -t 0.272 -s 2 -d 3 -p cbr -e 500 -c 2 -i 2 -a 2 -x {1.0 3.1 -1 ------- null}
- -t 0.274 -s 1 -d 2 -p cbr -e 500 -c 2 -i 4 -a 2 -x {1.0 3.1 3 ------- null}
h -t 0.274 -s 1 -d 2 -p cbr -e 500 -c 2 -i 4 -a 2 -x {1.0 3.1 -1 ------- null}
r -t 0.2808 -s 3 -d 2 -p ack -e 40 -c 1 -i 5 -a 1 -x {3.0 0.0 0 ------- null}
+ -t 0.2808 -s 2 -d 0 -p ack -e 40 -c 1 -i 5 -a 1 -x {3.0 0.0 0 ------- null}
- -t 0.2808 -s 2 -d 0 -p ack -e 40 -c 1 -i 5 -a 1 -x {3.0 0.0 0 ------- null}
h -t 0.2808 -s 2 -d 0 -p ack -e 40 -c 1 -i 5 -a 1 -x {3.0 0.0 -1 ------- null}
r -t 0.282 -s 2 -d 3 -p cbr -e 1000 -c 2 -i 1 -a 2 -x {1.0 3.1 0 ------- null}
r -t 0.284 -s 1 -d 2 -p cbr -e 1000 -c 2 -i 3 -a 2 -x {1.0 3.1 2 ------- null}
+ -t 0.284 -s 2 -d 3 -p cbr -e 1000 -c 2 -i 3 -a 2 -x {1.0 3.1 2 ------- null}
- -t 0.284 -s 2 -d 3 -p cbr -e 1000 -c 2 -i 3 -a 2 -x {1.0 3.1 2 ------- null}
h -t 0.284 -s 2 -d 3 -p cbr -e 1000 -c 2 -i 3 -a 2 -x {1.0 3.1 -1 ------- null}
r -t 0.286 -s 2 -d 3 -p cbr -e 500 -c 2 -i 2 -a 2 -x {1.0 3.1 1 ------- null}
r -t 0.286 -s 1 -d 2 -p cbr -e 500 -c 2 -i 4 -a 2 -x {1.0 3.1 3 ------- null}
+ -t 0.286 -s 2 -d 3 -p cbr -e 500 -c 2 -i 4 -a 2 -x {1.0 3.1 3 ------- null}
+ -t 0.29 -s 1 -d 2 -p cbr -e 1000 -c 2 -i 6 -a 2 -x {1.0 3.1 4 ------- null}
- -t 0.29 -s 1 -d 2 -p cbr -e 1000 -c 2 -i 6 -a 2 -x {1.0 3.1 4 ------- null}
h -t 0.29 -s 1 -d 2 -p cbr -e 1000 -c 2 -i 6 -a 2 -x {1.0 3.1 -1 ------- null}
+ -t 0.29 -s 1 -d 2 -p cbr -e 500 -c 2 -i 7 -a 2 -x {1.0 3.1 5 ------- null}
r -t 0.29096 -s 2 -d 0 -p ack -e 40 -c 1 -i 5 -a 1 -x {3.0 0.0 0 ------- null}
+ -t 0.29096 -s 0 -d 2 -p tcp -e 1540 -c 1 -i 8 -a 1 -x {0.0 3.0 1 ------- null}
- -t 0.29096 -s 0 -d 2 -p tcp -e 1540 -c 1 -i 8 -a 1 -x {0.0 3.0 1 ------- null}
h -t 0.29096 -s 0 -d 2 -p tcp -e 1540 -c 1 -i 8 -a 1 -x {0.0 3.0 -1 ------- null}
+ -t 0.29096 -s 0 -d 2 -p tcp -e 1540 -c 1 -i 9 -a 1 -x {0.0 3.0 2 ------- null}
- -t 0.292 -s 2 -d 3 -p cbr -e 500 -c 2 -i 4 -a 2 -x {1.0 3.1 3 ------- null}
h -t 0.292 -s 2 -d 3 -p cbr -e 500 -c 2 -i 4 -a 2 -x {1.0 3.1 -1 ------- null}
- -t 0.294 -s 1 -d 2 -p cbr -e 500 -c 2 -i 7 -a 2 -x {1.0 3.1 5 ------- null}
h -t 0.294 -s 1 -d 2 -p cbr -e 500 -c 2 -i 7 -a 2 -x {1.0 3.1 -1 ------- null}
- -t 0.29712 -s 0 -d 2 -p tcp -e 1540 -c 1 -i 9 -a 1 -x {0.0 3.0 2 ------- null}
h -t 0.29712 -s 0 -d 2 -p tcp -e 1540 -c 1 -i 9 -a 1 -x {0.0 3.0 -1 ------- null}
r -t 0.302 -s 2 -d 3 -p cbr -e 1000 -c 2 -i 3 -a 2 -x {1.0 3.1 2 ------- null}
r -t 0.304 -s 1 -d 2 -p cbr -e 1000 -c 2 -i 6 -a 2 -x {1.0 3.1 4 ------- null}
+ -t 0.304 -s 2 -d 3 -p cbr -e 1000 -c 2 -i 6 -a 2 -x {1.0 3.1 4 ------- null}
- -t 0.304 -s 2 -d 3 -p cbr -e 1000 -c 2 -i 6 -a 2 -x {1.0 3.1 4 ------- null}
h -t 0.304 -s 2 -d 3 -p cbr -e 1000 -c 2 -i 6 -a 2 -x {1.0 3.1 -1 ------- null}
r -t 0.306 -s 2 -d 3 -p cbr -e 500 -c 2 -i 4 -a 2 -x {1.0 3.1 3 ------- null}
r -t 0.306 -s 1 -d 2 -p cbr -e 500 -c 2 -i 7 -a 2 -x {1.0 3.1 5 ------- null}
+ -t 0.306 -s 2 -d 3 -p cbr -e 500 -c 2 -i 7 -a 2 -x {1.0 3.1 5 ------- null}
r -t 0.30712 -s 0 -d 2 -p tcp -e 1540 -c 1 -i 8 -a 1 -x {0.0 3.0 1 ------- null}
+ -t 0.30712 -s 2 -d 3 -p tcp -e 1540 -c 1 -i 8 -a 1 -x {0.0 3.0 1 ------- null}
+ -t 0.31 -s 1 -d 2 -p cbr -e 1000 -c 2 -i 10 -a 2 -x {1.0 3.1 6 ------- null}
- -t 0.31 -s 1 -d 2 -p cbr -e 1000 -c 2 -i 10 -a 2 -x {1.0 3.1 6 ------- null}
h -t 0.31 -s 1 -d 2 -p cbr -e 1000 -c 2 -i 10 -a 2 -x {1.0 3.1 -1 ------- null}
+ -t 0.31 -s 1 -d 2 -p cbr -e 500 -c 2 -i 11 -a 2 -x {1.0 3.1 7 ------- null}
- -t 0.312 -s 2 -d 3 -p cbr -e 500 -c 2 -i 7 -a 2 -x {1.0 3.1 5 ------- null}
h -t 0.312 -s 2 -d 3 -p cbr -e 500 -c 2 -i 7 -a 2 -x {1.0 3.1 -1 ------- null}
r -t 0.31328 -s 0 -d 2 -p tcp -e 1540 -c 1 -i 9 -a 1 -x {0.0 3.0 2 ------- null}
+ -t 0.31328 -s 2 -d 3 -p tcp -e 1540 -c 1 -i 9 -a 1 -x {0.0 3.0 2 ------- null}
- -t 0.314 -s 1 -d 2 -p cbr -e 500 -c 2 -i 11 -a 2 -x {1.0 3.1 7 ------- null}
h -t 0.314 -s 1 -d 2 -p cbr -e 500 -c 2 -i 11 -a 2 -x {1.0 3.1 -1 ------- null}
- -t 0.316 -s 2 -d 3 -p tcp -e 1540 -c 1 -i 8 -a 1 -x {0.0 3.0 1 ------- null}
h -t 0.316 -s 2 -d 3 -p tcp -e 1540 -c 1 -i 8 -a 1 -x {0.0 3.0 -1 ------- null}
r -t 0.322 -s 2 -d 3 -p cbr -e 1000 -c 2 -i 6 -a 2 -x {1.0 3.1 4 ------- null}
r -t 0.324 -s 1 -d 2 -p cbr -e 1000 -c 2 -i 10 -a 2 -x {1.0 3.1 6 ------- null}
+ -t 0.324 -s 2 -d 3 -p cbr -e 1000 -c 2 -i 10 -a 2 -x {1.0 3.1 6 ------- null}
r -t 0.326 -s 2 -d 3 -p cbr -e 500 -c 2 -i 7 -a 2 -x {1.0 3.1 5 ------- null}
r -t 0.326 -s 1 -d 2 -p cbr -e 500 -c 2 -i 11 -a 2 -x {1.0 3.1 7 ------- null}
+ -t 0.326 -s 2 -d 3 -p cbr -e 500 -c 2 -i 11 -a 2 -x {1.0 3.1 7 ------- null}
- -t 0.32832 -s 2 -d 3 -p tcp -e 1540 -c 1 -i 9 -a 1 -x {0.0 3.0 2 ------- null}
h -t 0.32832 -s 2 -d 3 -p tcp -e 1540 -c 1 -i 9 -a 1 -x {0.0 3.0 -1 ------- null}
+ -t 0.33 -s 1 -d 2 -p cbr -e 1000 -c 2 -i 12 -a 2 -x {1.0 3.1 8 ------- null}
- -t 0.33 -s 1 -d 2 -p cbr -e 1000 -c 2 -i 12 -a 2 -x {1.0 3.1 8 ------- null}
h -t 0.33 -s 1 -d 2 -p cbr -e 1000 -c 2 -i 12 -a 2 -x {1.0 3.1 -1 ------- null}
+ -t 0.33 -s 1 -d 2 -p cbr -e 500 -c 2 -i 13 -a 2 -x {1.0 3.1 9 ------- null}
- -t 0.334 -s 1 -d 2 -p cbr -e 500 -c 2 -i 13 -a 2 -x {1.0 3.1 9 ------- null}
h -t 0.334 -s 1 -d 2 -p cbr -e 500 -c 2 -i 13 -a 2 -x {1.0 3.1 -1 ------- null}
r -t 0.33832 -s 2 -d 3 -p tcp -e 1540 -c 1 -i 8 -a 1 -x {0.0 3.0 1 ------- null}
+ -t 0.33832 -s 3 -d 2 -p ack -e 40 -c 1 -i 14 -a 1 -x {3.0 0.0 1 ------- null}
- -t 0.33832 -s 3 -d 2 -p ack -e 40 -c 1 -i 14 -a 1 -x {3.0 0.0 1 ------- null}
h -t 0.33832 -s 3 -d 2 -p ack -e 40 -c 1 -i 14 -a 1 -x {3.0 0.0 -1 ------- null}
- -t 0.34064 -s 2 -d 3 -p cbr -e 1000 -c 2 -i 10 -a 2 -x {1.0 3.1 6 ------- null}
h -t 0.34064 -s 2 -d 3 -p cbr -e 1000 -c 2 -i 10 -a 2 -x {1.0 3.1 -1 ------- null}
r -t 0.344 -s 1 -d 2 -p cbr -e 1000 -c 2 -i 12 -a 2 -x {1.0 3.1 8 ------- null}
+ -t 0.344 -s 2 -d 3 -p cbr -e 1000 -c 2 -i 12 -a 2 -x {1.0 3.1 8 ------- null}
r -t 0.346 -s 1 -d 2 -p cbr -e 500 -c 2 -i 13 -a 2 -x {1.0 3.1 9 ------- null}
+ -t 0.346 -s 2 -d 3 -p cbr -e 500 -c 2 -i 13 -a 2 -x {1.0 3.1 9 ------- null}
r -t 0.34864 -s 3 -d 2 -p ack -e 40 -c 1 -i 14 -a 1 -x {3.0 0.0 1 ------- null}
+ -t 0.34864 -s 2 -d 0 -p ack -e 40 -c 1 -i 14 -a 1 -x {3.0 0.0 1 ------- null}
- -t 0.34864 -s 2 -d 0 -p ack -e 40 -c 1 -i 14 -a 1 -x {3.0 0.0 1 ------- null}
h -t 0.34864 -s 2 -d 0 -p ack -e 40 -c 1 -i 14 -a 1 -x {3.0 0.0 -1 ------- null}
- -t 0.34864 -s 2 -d 3 -p cbr -e 500 -c 2 -i 11 -a 2 -x {1.0 3.1 7 ------- null}
h -t 0.34864 -s 2 -d 3 -p cbr -e 500 -c 2 -i 11 -a 2 -x {1.0 3.1 -1 ------- null}
+ -t 0.35 -s 1 -d 2 -p cbr -e 1000 -c 2 -i 15 -a 2 -x {1.0 3.1 10 ------- null}
- -t 0.35 -s 1 -d 2 -p cbr -e 1000 -c 2 -i 15 -a 2 -x {1.0 3.1 10 ------- null}
h -t 0.35 -s 1 -d 2 -p cbr -e 1000 -c 2 -i 15 -a 2 -x {1.0 3.1 -1 ------- null}
+ -t 0.35 -s 1 -d 2 -p cbr -e 500 -c 2 -i 16 -a 2 -x {1.0 3.1 11 ------- null}
r -t 0.35064 -s 2 -d 3 -p tcp -e 1540 -c 1 -i 9 -a 1 -x {0.0 3.0 2 ------- null}
+ -t 0.35064 -s 3 -d 2 -p ack -e 40 -c 1 -i 17 -a 1 -x {3.0 0.0 2 ------- null}
- -t 0.35064 -s 3 -d 2 -p ack -e 40 -c 1 -i 17 -a 1 -x {3.0 0.0 2 ------- null}
h -t 0.35064 -s 3 -d 2 -p ack -e 40 -c 1 -i 17 -a 1 -x {3.0 0.0 -1 ------- null}
- -t 0.35264 -s 2 -d 3 -p cbr -e 1000 -c 2 -i 12 -a 2 -x {1.0 3.1 8 ------- null}
h -t 0.35264 -s 2 -d 3 -p cbr -e 1000 -c 2 -i 12 -a 2 -x {1.0 3.1 -1 ------- null}
- -t 0.354 -s 1 -d 2 -p cbr -e 500 -c 2 -i 16 -a 2 -x {1.0 3.1 11 ------- null}
h -t 0.354 -s 1 -d 2 -p cbr -e 500 -c 2 -i 16 -a 2 -x {1.0 3.1 -1 ------- null}
r -t 0.35864 -s 2 -d 3 -p cbr -e 1000 -c 2 -i 10 -a 2 -x {1.0 3.1 6 ------- null}
r -t 0.3588 -s 2 -d 0 -p ack -e 40 -c 1 -i 14 -a 1 -x {3.0 0.0 1 ------- null}
+ -t 0.3588 -s 0 -d 2 -p tcp -e 1540 -c 1 -i 18 -a 1 -x {0.0 3.0 3 ------- null}
- -t 0.3588 -s 0 -d 2 -p tcp -e 1540 -c 1 -i 18 -a 1 -x {0.0 3.0 3 ------- null}
h -t 0.3588 -s 0 -d 2 -p tcp -e 1540 -c 1 -i 18 -a 1 -x {0.0 3.0 -1 ------- null}
+ -t 0.3588 -s 0 -d 2 -p tcp -e 1540 -c 1 -i 19 -a 1 -x {0.0 3.0 4 ------- null}
- -t 0.36064 -s 2 -d 3 -p cbr -e 500 -c 2 -i 13 -a 2 -x {1.0 3.1 9 ------- null}
h -t 0.36064 -s 2 -d 3 -p cbr -e 500 -c 2 -i 13 -a 2 -x {1.0 3.1 -1 ------- null}
r -t 0.36096 -s 3 -d 2 -p ack -e 40 -c 1 -i 17 -a 1 -x {3.0 0.0 2 ------- null}
+ -t 0.36096 -s 2 -d 0 -p ack -e 40 -c 1 -i 17 -a 1 -x {3.0 0.0 2 ------- null}
- -t 0.36096 -s 2 -d 0 -p ack -e 40 -c 1 -i 17 -a 1 -x {3.0 0.0 2 ------- null}
h -t 0.36096 -s 2 -d 0 -p ack -e 40 -c 1 -i 17 -a 1 -x {3.0 0.0 -1 ------- null}
r -t 0.36264 -s 2 -d 3 -p cbr -e 500 -c 2 -i 11 -a 2 -x {1.0 3.1 7 ------- null}
r -t 0.364 -s 1 -d 2 -p cbr -e 1000 -c 2 -i 15 -a 2 -x {1.0 3.1 10 ------- null}
+ -t 0.364 -s 2 -d 3 -p cbr -e 1000 -c 2 -i 15 -a 2 -x {1.0 3.1 10 ------- null}
- -t 0.36464 -s 2 -d 3 -p cbr -e 1000 -c 2 -i 15 -a 2 -x {1.0 3.1 10 ------- null}
h -t 0.36464 -s 2 -d 3 -p cbr -e 1000 -c 2 -i 15 -a 2 -x {1.0 3.1 -1 ------- null}
- -t 0.36496 -s 0 -d 2 -p tcp -e 1540 -c 1 -i 19 -a 1 -x {0.0 3.0 4 ------- null}
h -t 0.36496 -s 0 -d 2 -p tcp -e 1540 -c 1 -i 19 -a 1 -x {0.0 3.0 -1 ------- null}
r -t 0.366 -s 1 -d 2 -p cbr -e 500 -c 2 -i 16 -a 2 -x {1.0 3.1 11 ------- null}
+ -t 0.366 -s 2 -d 3 -p cbr -e 500 -c 2 -i 16 -a 2 -x {1.0 3.1 11 ------- null}
+ -t 0.37 -s 1 -d 2 -p cbr -e 1000 -c 2 -i 20 -a 2 -x {1.0 3.1 12 ------- null}
- -t 0.37 -s 1 -d 2 -p cbr -e 1000 -c 2 -i 20 -a 2 -x {1.0 3.1 12 ------- null}
h -t 0.37 -s 1 -d 2 -p cbr -e 1000 -c 2 -i 20 -a 2 -x {1.0 3.1 -1 ------- null}
+ -t 0.37 -s 1 -d 2 -p cbr -e 500 -c 2 -i 21 -a 2 -x {1.0 3.1 13 ------- null}
r -t 0.37064 -s 2 -d 3 -p cbr -e 1000 -c 2 -i 12 -a 2 -x {1.0 3.1 8 ------- null}
r -t 0.37112 -s 2 -d 0 -p ack -e 40 -c 1 -i 17 -a 1 -x {3.0 0.0 2 ------- null}
+ -t 0.37112 -s 0 -d 2 -p tcp -e 1540 -c 1 -i 22 -a 1 -x {0.0 3.0 5 ------- null}
+ -t 0.37112 -s 0 -d 2 -p tcp -e 1540 -c 1 -i 23 -a 1 -x {0.0 3.0 6 ------- null}
- -t 0.37112 -s 0 -d 2 -p tcp -e 1540 -c 1 -i 22 -a 1 -x {0.0 3.0 5 ------- null}
h -t 0.37112 -s 0 -d 2 -p tcp -e 1540 -c 1 -i 22 -a 1 -x {0.0 3.0 -1 ------- null}
- -t 0.37264 -s 2 -d 3 -p cbr -e 500 -c 2 -i 16 -a 2 -x {1.0 3.1 11 ------- null}
h -t 0.37264 -s 2 -d 3 -p cbr -e 500 -c 2 -i 16 -a 2 -x {1.0 3.1 -1 ------- null}
- -t 0.374 -s 1 -d 2 -p cbr -e 500 -c 2 -i 21 -a 2 -x {1.0 3.1 13 ------- null}
h -t 0.374 -s 1 -d 2 -p cbr -e 500 -c 2 -i 21 -a 2 -x {1.0 3.1 -1 ------- null}
r -t 0.37464 -s 2 -d 3 -p cbr -e 500 -c 2 -i 13 -a 2 -x {1.0 3.1 9 ------- null}
r -t 0.37496 -s 0 -d 2 -p tcp -e 1540 -c 1 -i 18 -a 1 -x {0.0 3.0 3 ------- null}
+ -t 0.37496 -s 2 -d 3 -p tcp -e 1540 -c 1 -i 18 -a 1 -x {0.0 3.0 3 ------- null}
- -t 0.37664 -s 2 -d 3 -p tcp -e 1540 -c 1 -i 18 -a 1 -x {0.0 3.0 3 ------- null}
h -t 0.37664 -s 2 -d 3 -p tcp -e 1540 -c 1 -i 18 -a 1 -x {0.0 3.0 -1 ------- null}
- -t 0.37728 -s 0 -d 2 -p tcp -e 1540 -c 1 -i 23 -a 1 -x {0.0 3.0 6 ------- null}
h -t 0.37728 -s 0 -d 2 -p tcp -e 1540 -c 1 -i 23 -a 1 -x {0.0 3.0 -1 ------- null}
r -t 0.38112 -s 0 -d 2 -p tcp -e 1540 -c 1 -i 19 -a 1 -x {0.0 3.0 4 ------- null}
+ -t 0.38112 -s 2 -d 3 -p tcp -e 1540 -c 1 -i 19 -a 1 -x {0.0 3.0 4 ------- null}
r -t 0.38264 -s 2 -d 3 -p cbr -e 1000 -c 2 -i 15 -a 2 -x {1.0 3.1 10 ------- null}
r -t 0.384 -s 1 -d 2 -p cbr -e 1000 -c 2 -i 20 -a 2 -x {1.0 3.1 12 ------- null}
+ -t 0.384 -s 2 -d 3 -p cbr -e 1000 -c 2 -i 20 -a 2 -x {1.0 3.1 12 ------- null}
r -t 0.386 -s 1 -d 2 -p cbr -e 500 -c 2 -i 21 -a 2 -x {1.0 3.1 13 ------- null}
+ -t 0.386 -s 2 -d 3 -p cbr -e 500 -c 2 -i 21 -a 2 -x {1.0 3.1 13 ------- null}
r -t 0.38664 -s 2 -d 3 -p cbr -e 500 -c 2 -i 16 -a 2 -x {1.0 3.1 11 ------- null}
r -t 0.38728 -s 0 -d 2 -p tcp -e 1540 -c 1 -i 22 -a 1 -x {0.0 3.0 5 ------- null}
+ -t 0.38728 -s 2 -d 3 -p tcp -e 1540 -c 1 -i 22 -a 1 -x {0.0 3.0 5 ------- null}
d -t 0.38728 -s 2 -d 3 -p tcp -e 1540 -c 1 -i 22 -a 1 -x {0.0 3.0 5 ------- null}
- -t 0.38896 -s 2 -d 3 -p tcp -e 1540 -c 1 -i 19 -a 1 -x {0.0 3.0 4 ------- null}
h -t 0.38896 -s 2 -d 3 -p tcp -e 1540 -c 1 -i 19 -a 1 -x {0.0 3.0 -1 ------- null}
+ -t 0.39 -s 1 -d 2 -p cbr -e 1000 -c 2 -i 24 -a 2 -x {1.0 3.1 14 ------- null}
- -t 0.39 -s 1 -d 2 -p cbr -e 1000 -c 2 -i 24 -a 2 -x {1.0 3.1 14 ------- null}
h -t 0.39 -s 1 -d 2 -p cbr -e 1000 -c 2 -i 24 -a 2 -x {1.0 3.1 -1 ------- null}
+ -t 0.39 -s 1 -d 2 -p cbr -e 500 -c 2 -i 25 -a 2 -x {1.0 3.1 15 ------- null}
r -t 0.39344 -s 0 -d 2 -p tcp -e 1540 -c 1 -i 23 -a 1 -x {0.0 3.0 6 ------- null}
+ -t 0.39344 -s 2 -d 3 -p tcp -e 1540 -c 1 -i 23 -a 1 -x {0.0 3.0 6 ------- null}
- -t 0.394 -s 1 -d 2 -p cbr -e 500 -c 2 -i 25 -a 2 -x {1.0 3.1 15 ------- null}
h -t 0.394 -s 1 -d 2 -p cbr -e 500 -c 2 -i 25 -a 2 -x {1.0 3.1 -1 ------- null}
r -t 0.39896 -s 2 -d 3 -p tcp -e 1540 -c 1 -i 18 -a 1 -x {0.0 3.0 3 ------- null}
+ -t 0.39896 -s 3 -d 2 -p ack -e 40 -c 1 -i 26 -a 1 -x {3.0 0.0 3 ------- null}
- -t 0.39896 -s 3 -d 2 -p ack -e 40 -c 1 -i 26 -a 1 -x {3.0 0.0 3 ------- null}
h -t 0.39896 -s 3 -d 2 -p ack -e 40 -c 1 -i 26 -a 1 -x {3.0 0.0 -1 ------- null}
- -t 0.40128 -s 2 -d 3 -p cbr -e 1000 -c 2 -i 20 -a 2 -x {1.0 3.1 12 ------- null}
h -t 0.40128 -s 2 -d 3 -p cbr -e 1000 -c 2 -i 20 -a 2 -x {1.0 3.1 -1 ------- null}
r -t 0.404 -s 1 -d 2 -p cbr -e 1000 -c 2 -i 24 -a 2 -x {1.0 3.1 14 ------- null}
+ -t 0.404 -s 2 -d 3 -p cbr -e 1000 -c 2 -i 24 -a 2 -x {1.0 3.1 14 ------- null}
r -t 0.406 -s 1 -d 2 -p cbr -e 500 -c 2 -i 25 -a 2 -x {1.0 3.1 15 ------- null}
+ -t 0.406 -s 2 -d 3 -p cbr -e 500 -c 2 -i 25 -a 2 -x {1.0 3.1 15 ------- null}
d -t 0.406 -s 2 -d 3 -p cbr -e 500 -c 2 -i 25 -a 2 -x {1.0 3.1 15 ------- null}
r -t 0.40928 -s 3 -d 2 -p ack -e 40 -c 1 -i 26 -a 1 -x {3.0 0.0 3 ------- null}
+ -t 0.40928 -s 2 -d 0 -p ack -e 40 -c 1 -i 26 -a 1 -x {3.0 0.0 3 ------- null}
- -t 0.40928 -s 2 -d 0 -p ack -e 40 -c 1 -i 26 -a 1 -x {3.0 0.0 3 ------- null}
h -t 0.40928 -s 2 -d 0 -p ack -e 40 -c 1 -i 26 -a 1 -x {3.0 0.0 -1 ------- null}
- -t 0.40928 -s 2 -d 3 -p cbr -e 500 -c 2 -i 21 -a 2 -x {1.0 3.1 13 ------- null}
h -t 0.40928 -s 2 -d 3 -p cbr -e 500 -c 2 -i 21 -a 2 -x {1.0 3.1 -1 ------- null}
+ -t 0.41 -s 1 -d 2 -p cbr -e 1000 -c 2 -i 27 -a 2 -x {1.0 3.1 16 ------- null}
- -t 0.41 -s 1 -d 2 -p cbr -e 1000 -c 2 -i 27 -a 2 -x {1.0 3.1 16 ------- null}
h -t 0.41 -s 1 -d 2 -p cbr -e 1000 -c 2 -i 27 -a 2 -x {1.0 3.1 -1 ------- null}
+ -t 0.41 -s 1 -d 2 -p cbr -e 500 -c 2 -i 28 -a 2 -x {1.0 3.1 17 ------- null}
r -t 0.41128 -s 2 -d 3 -p tcp -e 1540 -c 1 -i 19 -a 1 -x {0.0 3.0 4 ------- null}
+ -t 0.41128 -s 3 -d 2 -p ack -e 40 -c 1 -i 29 -a 1 -x {3.0 0.0 4 ------- null}
- -t 0.41128 -s 3 -d 2 -p ack -e 40 -c 1 -i 29 -a 1 -x {3.0 0.0 4 ------- null}
h -t 0.41128 -s 3 -d 2 -p ack -e 40 -c 1 -i 29 -a 1 -x {3.0 0.0 -1 ------- null}
- -t 0.41328 -s 2 -d 3 -p tcp -e 1540 -c 1 -i 23 -a 1 -x {0.0 3.0 6 ------- null}
h -t 0.41328 -s 2 -d 3 -p tcp -e 1540 -c 1 -i 23 -a 1 -x {0.0 3.0 -1 ------- null}
- -t 0.414 -s 1 -d 2 -p cbr -e 500 -c 2 -i 28 -a 2 -x {1.0 3.1 17 ------- null}
h -t 0.414 -s 1 -d 2 -p cbr -e 500 -c 2 -i 28 -a 2 -x {1.0 3.1 -1 ------- null}
r -t 0.41928 -s 2 -d 3 -p cbr -e 1000 -c 2 -i 20 -a 2 -x {1.0 3.1 12 ------- null}
r -t 0.41944 -s 2 -d 0 -p ack -e 40 -c 1 -i 26 -a 1 -x {3.0 0.0 3 ------- null}
+ -t 0.41944 -s 0 -d 2 -p tcp -e 1540 -c 1 -i 30 -a 1 -x {0.0 3.0 7 ------- null}
- -t 0.41944 -s 0 -d 2 -p tcp -e 1540 -c 1 -i 30 -a 1 -x {0.0 3.0 7 ------- null}
h -t 0.41944 -s 0 -d 2 -p tcp -e 1540 -c 1 -i 30 -a 1 -x {0.0 3.0 -1 ------- null}
+ -t 0.41944 -s 0 -d 2 -p tcp -e 1540 -c 1 -i 31 -a 1 -x {0.0 3.0 8 ------- null}
r -t 0.4216 -s 3 -d 2 -p ack -e 40 -c 1 -i 29 -a 1 -x {3.0 0.0 4 ------- null}
+ -t 0.4216 -s 2 -d 0 -p ack -e 40 -c 1 -i 29 -a 1 -x {3.0 0.0 4 ------- null}
- -t 0.4216 -s 2 -d 0 -p ack -e 40 -c 1 -i 29 -a 1 -x {3.0 0.0 4 ------- null}
h -t 0.4216 -s 2 -d 0 -p ack -e 40 -c 1 -i 29 -a 1 -x {3.0 0.0 -1 ------- null}
r -t 0.42328 -s 2 -d 3 -p cbr -e 500 -c 2 -i 21 -a 2 -x {1.0 3.1 13 ------- null}
r -t 0.424 -s 1 -d 2 -p cbr -e 1000 -c 2 -i 27 -a 2 -x {1.0 3.1 16 ------- null}
+ -t 0.424 -s 2 -d 3 -p cbr -e 1000 -c 2 -i 27 -a 2 -x {1.0 3.1 16 ------- null}
- -t 0.4256 -s 2 -d 3 -p cbr -e 1000 -c 2 -i 24 -a 2 -x {1.0 3.1 14 ------- null}
h -t 0.4256 -s 2 -d 3 -p cbr -e 1000 -c 2 -i 24 -a 2 -x {1.0 3.1 -1 ------- null}
- -t 0.4256 -s 0 -d 2 -p tcp -e 1540 -c 1 -i 31 -a 1 -x {0.0 3.0 8 ------- null}
h -t 0.4256 -s 0 -d 2 -p tcp -e 1540 -c 1 -i 31 -a 1 -x {0.0 3.0 -1 ------- null}
r -t 0.426 -s 1 -d 2 -p cbr -e 500 -c 2 -i 28 -a 2 -x {1.0 3.1 17 ------- null}
+ -t 0.426 -s 2 -d 3 -p cbr -e 500 -c 2 -i 28 -a 2 -x {1.0 3.1 17 ------- null}
+ -t 0.43 -s 1 -d 2 -p cbr -e 1000 -c 2 -i 32 -a 2 -x {1.0 3.1 18 ------- null}
- -t 0.43 -s 1 -d 2 -p cbr -e 1000 -c 2 -i 32 -a 2 -x {1.0 3.1 18 ------- null}
h -t 0.43 -s 1 -d 2 -p cbr -e 1000 -c 2 -i 32 -a 2 -x {1.0 3.1 -1 ------- null}
+ -t 0.43 -s 1 -d 2 -p cbr -e 500 -c 2 -i 33 -a 2 -x {1.0 3.1 19 ------- null}
r -t 0.43176 -s 2 -d 0 -p ack -e 40 -c 1 -i 29 -a 1 -x {3.0 0.0 4 ------- null}
+ -t 0.43176 -s 0 -d 2 -p tcp -e 1540 -c 1 -i 34 -a 1 -x {0.0 3.0 9 ------- null}
+ -t 0.43176 -s 0 -d 2 -p tcp -e 1540 -c 1 -i 35 -a 1 -x {0.0 3.0 10 ------- null}
- -t 0.43176 -s 0 -d 2 -p tcp -e 1540 -c 1 -i 34 -a 1 -x {0.0 3.0 9 ------- null}
h -t 0.43176 -s 0 -d 2 -p tcp -e 1540 -c 1 -i 34 -a 1 -x {0.0 3.0 -1 ------- null}
- -t 0.4336 -s 2 -d 3 -p cbr -e 1000 -c 2 -i 27 -a 2 -x {1.0 3.1 16 ------- null}
h -t 0.4336 -s 2 -d 3 -p cbr -e 1000 -c 2 -i 27 -a 2 -x {1.0 3.1 -1 ------- null}
- -t 0.434 -s 1 -d 2 -p cbr -e 500 -c 2 -i 33 -a 2 -x {1.0 3.1 19 ------- null}
h -t 0.434 -s 1 -d 2 -p cbr -e 500 -c 2 -i 33 -a 2 -x {1.0 3.1 -1 ------- null}
r -t 0.4356 -s 2 -d 3 -p tcp -e 1540 -c 1 -i 23 -a 1 -x {0.0 3.0 6 ------- null}
+ -t 0.4356 -s 3 -d 2 -p ack -e 40 -c 1 -i 36 -a 1 -x {3.0 0.0 4 ------- null}
- -t 0.4356 -s 3 -d 2 -p ack -e 40 -c 1 -i 36 -a 1 -x {3.0 0.0 4 ------- null}
h -t 0.4356 -s 3 -d 2 -p ack -e 40 -c 1 -i 36 -a 1 -x {3.0 0.0 -1 ------- null}
r -t 0.4356 -s 0 -d 2 -p tcp -e 1540 -c 1 -i 30 -a 1 -x {0.0 3.0 7 ------- null}
+ -t 0.4356 -s 2 -d 3 -p tcp -e 1540 -c 1 -i 30 -a 1 -x {0.0 3.0 7 ------- null}
- -t 0.43792 -s 0 -d 2 -p tcp -e 1540 -c 1 -i 35 -a 1 -x {0.0 3.0 10 ------- null}
h -t 0.43792 -s 0 -d 2 -p tcp -e 1540 -c 1 -i 35 -a 1 -x {0.0 3.0 -1 ------- null}
- -t 0.4416 -s 2 -d 3 -p cbr -e 500 -c 2 -i 28 -a 2 -x {1.0 3.1 17 ------- null}
h -t 0.4416 -s 2 -d 3 -p cbr -e 500 -c 2 -i 28 -a 2 -x {1.0 3.1 -1 ------- null}
r -t 0.44176 -s 0 -d 2 -p tcp -e 1540 -c 1 -i 31 -a 1 -x {0.0 3.0 8 ------- null}
+ -t 0.44176 -s 2 -d 3 -p tcp -e 1540 -c 1 -i 31 -a 1 -x {0.0 3.0 8 ------- null}
r -t 0.4436 -s 2 -d 3 -p cbr -e 1000 -c 2 -i 24 -a 2 -x {1.0 3.1 14 ------- null}
r -t 0.444 -s 1 -d 2 -p cbr -e 1000 -c 2 -i 32 -a 2 -x {1.0 3.1 18 ------- null}
+ -t 0.444 -s 2 -d 3 -p cbr -e 1000 -c 2 -i 32 -a 2 -x {1.0 3.1 18 ------- null}
- -t 0.4456 -s 2 -d 3 -p tcp -e 1540 -c 1 -i 30 -a 1 -x {0.0 3.0 7 ------- null}
h -t 0.4456 -s 2 -d 3 -p tcp -e 1540 -c 1 -i 30 -a 1 -x {0.0 3.0 -1 ------- null}
r -t 0.44592 -s 3 -d 2 -p ack -e 40 -c 1 -i 36 -a 1 -x {3.0 0.0 4 ------- null}
+ -t 0.44592 -s 2 -d 0 -p ack -e 40 -c 1 -i 36 -a 1 -x {3.0 0.0 4 ------- null}
- -t 0.44592 -s 2 -d 0 -p ack -e 40 -c 1 -i 36 -a 1 -x {3.0 0.0 4 ------- null}
h -t 0.44592 -s 2 -d 0 -p ack -e 40 -c 1 -i 36 -a 1 -x {3.0 0.0 -1 ------- null}
r -t 0.446 -s 1 -d 2 -p cbr -e 500 -c 2 -i 33 -a 2 -x {1.0 3.1 19 ------- null}
+ -t 0.446 -s 2 -d 3 -p cbr -e 500 -c 2 -i 33 -a 2 -x {1.0 3.1 19 ------- null}
r -t 0.44792 -s 0 -d 2 -p tcp -e 1540 -c 1 -i 34 -a 1 -x {0.0 3.0 9 ------- null}
+ -t 0.44792 -s 2 -d 3 -p tcp -e 1540 -c 1 -i 34 -a 1 -x {0.0 3.0 9 ------- null}
d -t 0.44792 -s 2 -d 3 -p tcp -e 1540 -c 1 -i 34 -a 1 -x {0.0 3.0 9 ------- null}
+ -t 0.45 -s 1 -d 2 -p cbr -e 1000 -c 2 -i 37 -a 2 -x {1.0 3.1 20 ------- null}
- -t 0.45 -s 1 -d 2 -p cbr -e 1000 -c 2 -i 37 -a 2 -x {1.0 3.1 20 ------- null}
h -t 0.45 -s 1 -d 2 -p cbr -e 1000 -c 2 -i 37 -a 2 -x {1.0 3.1 -1 ------- null}
+ -t 0.45 -s 1 -d 2 -p cbr -e 500 -c 2 -i 38 -a 2 -x {1.0 3.1 21 ------- null}
r -t 0.4516 -s 2 -d 3 -p cbr -e 1000 -c 2 -i 27 -a 2 -x {1.0 3.1 16 ------- null}
- -t 0.454 -s 1 -d 2 -p cbr -e 500 -c 2 -i 38 -a 2 -x {1.0 3.1 21 ------- null}
h -t 0.454 -s 1 -d 2 -p cbr -e 500 -c 2 -i 38 -a 2 -x {1.0 3.1 -1 ------- null}
r -t 0.45408 -s 0 -d 2 -p tcp -e 1540 -c 1 -i 35 -a 1 -x {0.0 3.0 10 ------- null}
+ -t 0.45408 -s 2 -d 3 -p tcp -e 1540 -c 1 -i 35 -a 1 -x {0.0 3.0 10 ------- null}
d -t 0.45408 -s 2 -d 3 -p tcp -e 1540 -c 1 -i 35 -a 1 -x {0.0 3.0 10 ------- null}
r -t 0.4556 -s 2 -d 3 -p cbr -e 500 -c 2 -i 28 -a 2 -x {1.0 3.1 17 ------- null}
r -t 0.45608 -s 2 -d 0 -p ack -e 40 -c 1 -i 36 -a 1 -x {3.0 0.0 4 ------- null}
+ -t 0.45608 -s 0 -d 2 -p tcp -e 1540 -c 1 -i 39 -a 1 -x {0.0 3.0 11 ------- null}
- -t 0.45608 -s 0 -d 2 -p tcp -e 1540 -c 1 -i 39 -a 1 -x {0.0 3.0 11 ------- null}
h -t 0.45608 -s 0 -d 2 -p tcp -e 1540 -c 1 -i 39 -a 1 -x {0.0 3.0 -1 ------- null}
- -t 0.45792 -s 2 -d 3 -p tcp -e 1540 -c 1 -i 31 -a 1 -x {0.0 3.0 8 ------- null}
h -t 0.45792 -s 2 -d 3 -p tcp -e 1540 -c 1 -i 31 -a 1 -x {0.0 3.0 -1 ------- null}
r -t 0.464 -s 1 -d 2 -p cbr -e 1000 -c 2 -i 37 -a 2 -x {1.0 3.1 20 ------- null}
+ -t 0.464 -s 2 -d 3 -p cbr -e 1000 -c 2 -i 37 -a 2 -x {1.0 3.1 20 ------- null}
r -t 0.466 -s 1 -d 2 -p cbr -e 500 -c 2 -i 38 -a 2 -x {1.0 3.1 21 ------- null}
+ -t 0.466 -s 2 -d 3 -p cbr -e 500 -c 2 -i 38 -a 2 -x {1.0 3.1 21 ------- null}
d -t 0.466 -s 2 -d 3 -p cbr -e 500 -c 2 -i 38 -a 2 -x {1.0 3.1 21 ------- null}
r -t 0.46792 -s 2 -d 3 -p tcp -e 1540 -c 1 -i 30 -a 1 -x {0.0 3.0 7 ------- null}
+ -t 0.46792 -s 3 -d 2 -p ack -e 40 -c 1 -i 40 -a 1 -x {3.0 0.0 4 ------- null}
- -t 0.46792 -s 3 -d 2 -p ack -e 40 -c 1 -i 40 -a 1 -x {3.0 0.0 4 ------- null}
h -t 0.46792 -s 3 -d 2 -p ack -e 40 -c 1 -i 40 -a 1 -x {3.0 0.0 -1 ------- null}
+ -t 0.47 -s 1 -d 2 -p cbr -e 1000 -c 2 -i 41 -a 2 -x {1.0 3.1 22 ------- null}
- -t 0.47 -s 1 -d 2 -p cbr -e 1000 -c 2 -i 41 -a 2 -x {1.0 3.1 22 ------- null}
h -t 0.47 -s 1 -d 2 -p cbr -e 1000 -c 2 -i 41 -a 2 -x {1.0 3.1 -1 ------- null}
+ -t 0.47 -s 1 -d 2 -p cbr -e 500 -c 2 -i 42 -a 2 -x {1.0 3.1 23 ------- null}
- -t 0.47024 -s 2 -d 3 -p cbr -e 1000 -c 2 -i 32 -a 2 -x {1.0 3.1 18 ------- null}
h -t 0.47024 -s 2 -d 3 -p cbr -e 1000 -c 2 -i 32 -a 2 -x {1.0 3.1 -1 ------- null}
r -t 0.47224 -s 0 -d 2 -p tcp -e 1540 -c 1 -i 39 -a 1 -x {0.0 3.0 11 ------- null}
+ -t 0.47224 -s 2 -d 3 -p tcp -e 1540 -c 1 -i 39 -a 1 -x {0.0 3.0 11 ------- null}
- -t 0.474 -s 1 -d 2 -p cbr -e 500 -c 2 -i 42 -a 2 -x {1.0 3.1 23 ------- null}
h -t 0.474 -s 1 -d 2 -p cbr -e 500 -c 2 -i 42 -a 2 -x {1.0 3.1 -1 ------- null}
r -t 0.47824 -s 3 -d 2 -p ack -e 40 -c 1 -i 40 -a 1 -x {3.0 0.0 4 ------- null}
+ -t 0.47824 -s 2 -d 0 -p ack -e 40 -c 1 -i 40 -a 1 -x {3.0 0.0 4 ------- null}
- -t 0.47824 -s 2 -d 0 -p ack -e 40 -c 1 -i 40 -a 1 -x {3.0 0.0 4 ------- null}
h -t 0.47824 -s 2 -d 0 -p ack -e 40 -c 1 -i 40 -a 1 -x {3.0 0.0 -1 ------- null}
- -t 0.47824 -s 2 -d 3 -p cbr -e 500 -c 2 -i 33 -a 2 -x {1.0 3.1 19 ------- null}
h -t 0.47824 -s 2 -d 3 -p cbr -e 500 -c 2 -i 33 -a 2 -x {1.0 3.1 -1 ------- null}
r -t 0.48024 -s 2 -d 3 -p tcp -e 1540 -c 1 -i 31 -a 1 -x {0.0 3.0 8 ------- null}
+ -t 0.48024 -s 3 -d 2 -p ack -e 40 -c 1 -i 43 -a 1 -x {3.0 0.0 4 ------- null}
- -t 0.48024 -s 3 -d 2 -p ack -e 40 -c 1 -i 43 -a 1 -x {3.0 0.0 4 ------- null}
h -t 0.48024 -s 3 -d 2 -p ack -e 40 -c 1 -i 43 -a 1 -x {3.0 0.0 -1 ------- null}
- -t 0.48224 -s 2 -d 3 -p cbr -e 1000 -c 2 -i 37 -a 2 -x {1.0 3.1 20 ------- null}
h -t 0.48224 -s 2 -d 3 -p cbr -e 1000 -c 2 -i 37 -a 2 -x {1.0 3.1 -1 ------- null}
r -t 0.484 -s 1 -d 2 -p cbr -e 1000 -c 2 -i 41 -a 2 -x {1.0 3.1 22 ------- null}
+ -t 0.484 -s 2 -d 3 -p cbr -e 1000 -c 2 -i 41 -a 2 -x {1.0 3.1 22 ------- null}
r -t 0.486 -s 1 -d 2 -p cbr -e 500 -c 2 -i 42 -a 2 -x {1.0 3.1 23 ------- null}
+ -t 0.486 -s 2 -d 3 -p cbr -e 500 -c 2 -i 42 -a 2 -x {1.0 3.1 23 ------- null}
r -t 0.48824 -s 2 -d 3 -p cbr -e 1000 -c 2 -i 32 -a 2 -x {1.0 3.1 18 ------- null}
r -t 0.4884 -s 2 -d 0 -p ack -e 40 -c 1 -i 40 -a 1 -x {3.0 0.0 4 ------- null}
+ -t 0.4884 -s 0 -d 2 -p tcp -e 1540 -c 1 -i 44 -a 1 -x {0.0 3.0 12 ------- null}
- -t 0.4884 -s 0 -d 2 -p tcp -e 1540 -c 1 -i 44 -a 1 -x {0.0 3.0 12 ------- null}
h -t 0.4884 -s 0 -d 2 -p tcp -e 1540 -c 1 -i 44 -a 1 -x {0.0 3.0 -1 ------- null}
+ -t 0.49 -s 1 -d 2 -p cbr -e 1000 -c 2 -i 45 -a 2 -x {1.0 3.1 24 ------- null}
- -t 0.49 -s 1 -d 2 -p cbr -e 1000 -c 2 -i 45 -a 2 -x {1.0 3.1 24 ------- null}
h -t 0.49 -s 1 -d 2 -p cbr -e 1000 -c 2 -i 45 -a 2 -x {1.0 3.1 -1 ------- null}
+ -t 0.49 -s 1 -d 2 -p cbr -e 500 -c 2 -i 46 -a 2 -x {1.0 3.1 25 ------- null}
- -t 0.49024 -s 2 -d 3 -p tcp -e 1540 -c 1 -i 39 -a 1 -x {0.0 3.0 11 ------- null}
h -t 0.49024 -s 2 -d 3 -p tcp -e 1540 -c 1 -i 39 -a 1 -x {0.0 3.0 -1 ------- null}
r -t 0.49056 -s 3 -d 2 -p ack -e 40 -c 1 -i 43 -a 1 -x {3.0 0.0 4 ------- null}
+ -t 0.49056 -s 2 -d 0 -p ack -e 40 -c 1 -i 43 -a 1 -x {3.0 0.0 4 ------- null}
- -t 0.49056 -s 2 -d 0 -p ack -e 40 -c 1 -i 43 -a 1 -x {3.0 0.0 4 ------- null}
h -t 0.49056 -s 2 -d 0 -p ack -e 40 -c 1 -i 43 -a 1 -x {3.0 0.0 -1 ------- null}
r -t 0.49224 -s 2 -d 3 -p cbr -e 500 -c 2 -i 33 -a 2 -x {1.0 3.1 19 ------- null}
- -t 0.494 -s 1 -d 2 -p cbr -e 500 -c 2 -i 46 -a 2 -x {1.0 3.1 25 ------- null}
h -t 0.494 -s 1 -d 2 -p cbr -e 500 -c 2 -i 46 -a 2 -x {1.0 3.1 -1 ------- null}
r -t 0.50024 -s 2 -d 3 -p cbr -e 1000 -c 2 -i 37 -a 2 -x {1.0 3.1 20 ------- null}
r -t 0.50072 -s 2 -d 0 -p ack -e 40 -c 1 -i 43 -a 1 -x {3.0 0.0 4 ------- null}
+ -t 0.50072 -s 0 -d 2 -p tcp -e 1540 -c 1 -i 47 -a 1 -x {0.0 3.0 5 ---A--- null}
- -t 0.50072 -s 0 -d 2 -p tcp -e 1540 -c 1 -i 47 -a 1 -x {0.0 3.0 5 ---A--- null}
h -t 0.50072 -s 0 -d 2 -p tcp -e 1540 -c 1 -i 47 -a 1 -x {0.0 3.0 -1 ---A--- null}
- -t 0.50256 -s 2 -d 3 -p cbr -e 1000 -c 2 -i 41 -a 2 -x {1.0 3.1 22 ------- null}
h -t 0.50256 -s 2 -d 3 -p cbr -e 1000 -c 2 -i 41 -a 2 -x {1.0 3.1 -1 ------- null}
r -t 0.504 -s 1 -d 2 -p cbr -e 1000 -c 2 -i 45 -a 2 -x {1.0 3.1 24 ------- null}
+ -t 0.504 -s 2 -d 3 -p cbr -e 1000 -c 2 -i 45 -a 2 -x {1.0 3.1 24 ------- null}
r -t 0.50456 -s 0 -d 2 -p tcp -e 1540 -c 1 -i 44 -a 1 -x {0.0 3.0 12 ------- null}
+ -t 0.50456 -s 2 -d 3 -p tcp -e 1540 -c 1 -i 44 -a 1 -x {0.0 3.0 12 ------- null}
r -t 0.506 -s 1 -d 2 -p cbr -e 500 -c 2 -i 46 -a 2 -x {1.0 3.1 25 ------- null}
+ -t 0.506 -s 2 -d 3 -p cbr -e 500 -c 2 -i 46 -a 2 -x {1.0 3.1 25 ------- null}
d -t 0.506 -s 2 -d 3 -p cbr -e 500 -c 2 -i 46 -a 2 -x {1.0 3.1 25 ------- null}
+ -t 0.51 -s 1 -d 2 -p cbr -e 1000 -c 2 -i 48 -a 2 -x {1.0 3.1 26 ------- null}
- -t 0.51 -s 1 -d 2 -p cbr -e 1000 -c 2 -i 48 -a 2 -x {1.0 3.1 26 ------- null}
h -t 0.51 -s 1 -d 2 -p cbr -e 1000 -c 2 -i 48 -a 2 -x {1.0 3.1 -1 ------- null}
+ -t 0.51 -s 1 -d 2 -p cbr -e 500 -c 2 -i 49 -a 2 -x {1.0 3.1 27 ------- null}
- -t 0.51056 -s 2 -d 3 -p cbr -e 500 -c 2 -i 42 -a 2 -x {1.0 3.1 23 ------- null}
h -t 0.51056 -s 2 -d 3 -p cbr -e 500 -c 2 -i 42 -a 2 -x {1.0 3.1 -1 ------- null}
r -t 0.51256 -s 2 -d 3 -p tcp -e 1540 -c 1 -i 39 -a 1 -x {0.0 3.0 11 ------- null}
+ -t 0.51256 -s 3 -d 2 -p ack -e 40 -c 1 -i 50 -a 1 -x {3.0 0.0 4 ------- null}
- -t 0.51256 -s 3 -d 2 -p ack -e 40 -c 1 -i 50 -a 1 -x {3.0 0.0 4 ------- null}