V -t * -v 1.0a5 -a 0
A -t * -n 1 -p 0 -o 0xffffffff -c 31 -a 1
A -t * -h 1 -m 2147483647 -s 0
c -t * -i 4 -n yellow
c -t * -i 1 -n blue
c -t * -i 2 -n red
c -t * -i 3 -n green
n -t * -a 0 -s 0 -S UP -v circle -c black -i black
n -t * -a 1 -s 1 -S UP -v circle -c black -i black
n -t * -a 2 -s 2 -S UP -v circle -c black -i black
n -t * -a 3 -s 3 -S UP -v circle -c black -i black
l -t * -s 0 -d 2 -S UP -r 2000000 -D 0.01 -c black -o right-down
l -t * -s 1 -d 2 -S UP -r 2000000 -D 0.01 -c black -o right-up
l -t * -s 2 -d 3 -S UP -r 1000000 -D 0.01 -c black -o right
q -t * -s 3 -d 2 -a 0.5
q -t * -s 2 -d 3 -a 0.5
+ -t 0.25 -s 0 -d 2 -p tcp -e 40 -c 1 -i 0 -a 1 -x {0.0 3.0 0 ------- null}
- -t 0.25 -s 0 -d 2 -p tcp -e 40 -c 1 -i 0 -a 1 -x {0.0 3.0 0 ------- null}
h -t 0.25 -s 0 -d 2 -p tcp -e 40 -c 1 -i 0 -a 1 -x {0.0 3.0 -1 ------- null}
+ -t 0.25 -s 1 -d 2 -p cbr -e 1000 -c 2 -i 1 -a 2 -x {1.0 3.1 0 ------- null}
- -t 0.25 -s 1 -d 2 -p cbr -e 1000 -c 2 -i 1 -a 2 -x {1.0 3.1 0 ------- null}
h -t 0.25 -s 1 -d 2 -p cbr -e 1000 -c 2 -i 1 -a 2 -x {1.0 3.1 -1 ------- null}
+ -t 0.25 -s 1 -d 2 -p cbr -e 500 -c 2 -i 2 -a 2 -x {1.0 3.1 1 ------- null}
- -t 0.254 -s 1 -d 2 -p cbr -e 500 -c 2 -i 2 -a 2 -x {1.0 3.1 1 ------- null}
h -t 0.254 -s 1 -d 2 -p cbr -e 500 -c 2 -i 2 -a 2 -x {1.0 3.1 -1 ------- null}
r -t 0.26016 -s 0 -d 2 -p tcp -e 40 -c 1 -i 0 -a 1 -x {0.0 3.0 0 ------- null}
+ -t 0.26016 -s 2 -d 3 -p tcp -e 40 -c 1 -i 0 -a 1 -x {0.0 3.0 0 ------- null}
- -t 0.26016 -s 2 -d 3 -p tcp -e 40 -c 1 -i 0 -a 1 -x {0.0 3.0 0 ------- null}
h -t 0.26016 -s 2 -d 3 -p tcp -e 40 -c 1 -i 0 -a 1 -x {0.0 3.0 -1 ------- null}
+ -t 0.262 -s 1 -d 2 -p cbr -e 1000 -c 2 -i 3 -a 2 -x {1.0 3.1 2 ------- null}
- -t 0.262 -s 1 -d 2 -p cbr -e 1000 -c 2 -i 3 -a 2 -x {1.0 3.1 2 ------- null}
h -t 0.262 -s 1 -d 2 -p cbr -e 1000 -c 2 -i 3 -a 2 -x {1.0 3.1 -1 ------- null}
+ -t 0.262 -s 1 -d 2 -p cbr -e 500 -c 2 -i 4 -a 2 -x {1.0 3.1 3 ------- null}
r -t 0.264 -s 1 -d 2 -p cbr -e 1000 -c 2 -i 1 -a 2 -x {1.0 3.1 0 ------- null}
+ -t 0.264 -s 2 -d 3 -p cbr -e 1000 -c 2 -i 1 -a 2 -x {1.0 3.1 0 ------- null}
- -t 0.264 -s 2 -d 3 -p cbr -e 1000 -c 2 -i 1 -a 2 -x {1.0 3.1 0 ------- null}
h -t 0.264 -s 2 -d 3 -p cbr -e 1000 -c 2 -i 1 -a 2 -x {1.0 3.1 -1 ------- null}
r -t 0.266 -s 1 -d 2 -p cbr -e 500 -c 2 -i 2 -a 2 -x {1.0 3.1 1 ------- null}
+ -t 0.266 -s 2 -d 3 -p cbr -e 500 -c 2 -i 2 -a 2 -x {1.0 3.1 1 ------- null}
- -t 0.266 -s 1 -d 2 -p cbr -e 500 -c 2 -i 4 -a 2 -x {1.0 3.1 3 ------- null}
h -t 0.266 -s 1 -d 2 -p cbr -e 500 -c 2 -i 4 -a 2 -x {1.0 3.1 -1 ------- null}
r -t 0.27048 -s 2 -d 3 -p tcp -e 40 -c 1 -i 0 -a 1 -x {0.0 3.0 0 ------- null}
+ -t 0.27048 -s 3 -d 2 -p ack -e 40 -c 1 -i 5 -a 1 -x {3.0 0.0 0 ------- null}
- -t 0.27048 -s 3 -d 2 -p ack -e 40 -c 1 -i 5 -a 1 -x {3.0 0.0 0 ------- null}
h -t 0.27048 -s 3 -d 2 -p ack -e 40 -c 1 -i 5 -a 1 -x {3.0 0.0 -1 ------- null}
- -t 0.272 -s 2 -d 3 -p cbr -e 500 -c 2 -i 2 -a 2 -x {1.0 3.1 1 ------- null}
h -t 0.272 -s 2 -d 3 -p cbr -e 500 -c 2 -i 2 -a 2 -x {1.0 3.1 -1 ------- null}
+ -t 0.274 -s 1 -d 2 -p cbr -e 1000 -c 2 -i 6 -a 2 -x {1.0 3.1 4 ------- null}
- -t 0.274 -s 1 -d 2 -p cbr -e 1000 -c 2 -i 6 -a 2 -x {1.0 3.1 4 ------- null}
h -t 0.274 -s 1 -d 2 -p cbr -e 1000 -c 2 -i 6 -a 2 -x {1.0 3.1 -1 ------- null}
+ -t 0.274 -s 1 -d 2 -p cbr -e 500 -c 2 -i 7 -a 2 -x {1.0 3.1 5 ------- null}
r -t 0.276 -s 1 -d 2 -p cbr -e 1000 -c 2 -i 3 -a 2 -x {1.0 3.1 2 ------- null}
+ -t 0.276 -s 2 -d 3 -p cbr -e 1000 -c 2 -i 3 -a 2 -x {1.0 3.1 2 ------- null}
- -t 0.276 -s 2 -d 3 -p cbr -e 1000 -c 2 -i 3 -a 2 -x {1.0 3.1 2 ------- null}
h -t 0.276 -s 2 -d 3 -p cbr -e 1000 -c 2 -i 3 -a 2 -x {1.0 3.1 -1 ------- null}
r -t 0.278 -s 1 -d 2 -p cbr -e 500 -c 2 -i 4 -a 2 -x {1.0 3.1 3 ------- null}
+ -t 0.278 -s 2 -d 3 -p cbr -e 500 -c 2 -i 4 -a 2 -x {1.0 3.1 3 ------- null}
- -t 0.278 -s 1 -d 2 -p cbr -e 500 -c 2 -i 7 -a 2 -x {1.0 3.1 5 ------- null}
h -t 0.278 -s 1 -d 2 -p cbr -e 500 -c 2 -i 7 -a 2 -x {1.0 3.1 -1 ------- null}
r -t 0.2808 -s 3 -d 2 -p ack -e 40 -c 1 -i 5 -a 1 -x {3.0 0.0 0 ------- null}
+ -t 0.2808 -s 2 -d 0 -p ack -e 40 -c 1 -i 5 -a 1 -x {3.0 0.0 0 ------- null}
- -t 0.2808 -s 2 -d 0 -p ack -e 40 -c 1 -i 5 -a 1 -x {3.0 0.0 0 ------- null}
h -t 0.2808 -s 2 -d 0 -p ack -e 40 -c 1 -i 5 -a 1 -x {3.0 0.0 -1 ------- null}
r -t 0.282 -s 2 -d 3 -p cbr -e 1000 -c 2 -i 1 -a 2 -x {1.0 3.1 0 ------- null}
- -t 0.284 -s 2 -d 3 -p cbr -e 500 -c 2 -i 4 -a 2 -x {1.0 3.1 3 ------- null}
h -t 0.284 -s 2 -d 3 -p cbr -e 500 -c 2 -i 4 -a 2 -x {1.0 3.1 -1 ------- null}
r -t 0.286 -s 2 -d 3 -p cbr -e 500 -c 2 -i 2 -a 2 -x {1.0 3.1 1 ------- null}
+ -t 0.286 -s 1 -d 2 -p cbr -e 1000 -c 2 -i 8 -a 2 -x {1.0 3.1 6 ------- null}
- -t 0.286 -s 1 -d 2 -p cbr -e 1000 -c 2 -i 8 -a 2 -x {1.0 3.1 6 ------- null}
h -t 0.286 -s 1 -d 2 -p cbr -e 1000 -c 2 -i 8 -a 2 -x {1.0 3.1 -1 ------- null}
+ -t 0.286 -s 1 -d 2 -p cbr -e 500 -c 2 -i 9 -a 2 -x {1.0 3.1 7 ------- null}
r -t 0.288 -s 1 -d 2 -p cbr -e 1000 -c 2 -i 6 -a 2 -x {1.0 3.1 4 ------- null}
+ -t 0.288 -s 2 -d 3 -p cbr -e 1000 -c 2 -i 6 -a 2 -x {1.0 3.1 4 ------- null}
- -t 0.288 -s 2 -d 3 -p cbr -e 1000 -c 2 -i 6 -a 2 -x {1.0 3.1 4 ------- null}
h -t 0.288 -s 2 -d 3 -p cbr -e 1000 -c 2 -i 6 -a 2 -x {1.0 3.1 -1 ------- null}
r -t 0.29 -s 1 -d 2 -p cbr -e 500 -c 2 -i 7 -a 2 -x {1.0 3.1 5 ------- null}
+ -t 0.29 -s 2 -d 3 -p cbr -e 500 -c 2 -i 7 -a 2 -x {1.0 3.1 5 ------- null}
- -t 0.29 -s 1 -d 2 -p cbr -e 500 -c 2 -i 9 -a 2 -x {1.0 3.1 7 ------- null}
h -t 0.29 -s 1 -d 2 -p cbr -e 500 -c 2 -i 9 -a 2 -x {1.0 3.1 -1 ------- null}
r -t 0.29096 -s 2 -d 0 -p ack -e 40 -c 1 -i 5 -a 1 -x {3.0 0.0 0 ------- null}
+ -t 0.29096 -s 0 -d 2 -p tcp -e 1540 -c 1 -i 10 -a 1 -x {0.0 3.0 1 ------- null}
- -t 0.29096 -s 0 -d 2 -p tcp -e 1540 -c 1 -i 10 -a 1 -x {0.0 3.0 1 ------- null}
h -t 0.29096 -s 0 -d 2 -p tcp -e 1540 -c 1 -i 10 -a 1 -x {0.0 3.0 -1 ------- null}
+ -t 0.29096 -s 0 -d 2 -p tcp -e 1540 -c 1 -i 11 -a 1 -x {0.0 3.0 2 ------- null}
r -t 0.294 -s 2 -d 3 -p cbr -e 1000 -c 2 -i 3 -a 2 -x {1.0 3.1 2 ------- null}
- -t 0.296 -s 2 -d 3 -p cbr -e 500 -c 2 -i 7 -a 2 -x {1.0 3.1 5 ------- null}
h -t 0.296 -s 2 -d 3 -p cbr -e 500 -c 2 -i 7 -a 2 -x {1.0 3.1 -1 ------- null}
- -t 0.29712 -s 0 -d 2 -p tcp -e 1540 -c 1 -i 11 -a 1 -x {0.0 3.0 2 ------- null}
h -t 0.29712 -s 0 -d 2 -p tcp -e 1540 -c 1 -i 11 -a 1 -x {0.0 3.0 -1 ------- null}
r -t 0.298 -s 2 -d 3 -p cbr -e 500 -c 2 -i 4 -a 2 -x {1.0 3.1 3 ------- null}
+ -t 0.298 -s 1 -d 2 -p cbr -e 1000 -c 2 -i 12 -a 2 -x {1.0 3.1 8 ------- null}
- -t 0.298 -s 1 -d 2 -p cbr -e 1000 -c 2 -i 12 -a 2 -x {1.0 3.1 8 ------- null}
h -t 0.298 -s 1 -d 2 -p cbr -e 1000 -c 2 -i 12 -a 2 -x {1.0 3.1 -1 ------- null}
+ -t 0.298 -s 1 -d 2 -p cbr -e 500 -c 2 -i 13 -a 2 -x {1.0 3.1 9 ------- null}
r -t 0.3 -s 1 -d 2 -p cbr -e 1000 -c 2 -i 8 -a 2 -x {1.0 3.1 6 ------- null}
+ -t 0.3 -s 2 -d 3 -p cbr -e 1000 -c 2 -i 8 -a 2 -x {1.0 3.1 6 ------- null}
- -t 0.3 -s 2 -d 3 -p cbr -e 1000 -c 2 -i 8 -a 2 -x {1.0 3.1 6 ------- null}
h -t 0.3 -s 2 -d 3 -p cbr -e 1000 -c 2 -i 8 -a 2 -x {1.0 3.1 -1 ------- null}
r -t 0.302 -s 1 -d 2 -p cbr -e 500 -c 2 -i 9 -a 2 -x {1.0 3.1 7 ------- null}
+ -t 0.302 -s 2 -d 3 -p cbr -e 500 -c 2 -i 9 -a 2 -x {1.0 3.1 7 ------- null}
- -t 0.302 -s 1 -d 2 -p cbr -e 500 -c 2 -i 13 -a 2 -x {1.0 3.1 9 ------- null}
h -t 0.302 -s 1 -d 2 -p cbr -e 500 -c 2 -i 13 -a 2 -x {1.0 3.1 -1 ------- null}
r -t 0.306 -s 2 -d 3 -p cbr -e 1000 -c 2 -i 6 -a 2 -x {1.0 3.1 4 ------- null}
r -t 0.30712 -s 0 -d 2 -p tcp -e 1540 -c 1 -i 10 -a 1 -x {0.0 3.0 1 ------- null}
+ -t 0.30712 -s 2 -d 3 -p tcp -e 1540 -c 1 -i 10 -a 1 -x {0.0 3.0 1 ------- null}
- -t 0.308 -s 2 -d 3 -p cbr -e 500 -c 2 -i 9 -a 2 -x {1.0 3.1 7 ------- null}
h -t 0.308 -s 2 -d 3 -p cbr -e 500 -c 2 -i 9 -a 2 -x {1.0 3.1 -1 ------- null}
r -t 0.31 -s 2 -d 3 -p cbr -e 500 -c 2 -i 7 -a 2 -x {1.0 3.1 5 ------- null}
+ -t 0.31 -s 1 -d 2 -p cbr -e 1000 -c 2 -i 14 -a 2 -x {1.0 3.1 10 ------- null}
- -t 0.31 -s 1 -d 2 -p cbr -e 1000 -c 2 -i 14 -a 2 -x {1.0 3.1 10 ------- null}
h -t 0.31 -s 1 -d 2 -p cbr -e 1000 -c 2 -i 14 -a 2 -x {1.0 3.1 -1 ------- null}
+ -t 0.31 -s 1 -d 2 -p cbr -e 500 -c 2 -i 15 -a 2 -x {1.0 3.1 11 ------- null}
r -t 0.312 -s 1 -d 2 -p cbr -e 1000 -c 2 -i 12 -a 2 -x {1.0 3.1 8 ------- null}
+ -t 0.312 -s 2 -d 3 -p cbr -e 1000 -c 2 -i 12 -a 2 -x {1.0 3.1 8 ------- null}
- -t 0.312 -s 2 -d 3 -p tcp -e 1540 -c 1 -i 10 -a 1 -x {0.0 3.0 1 ------- null}
h -t 0.312 -s 2 -d 3 -p tcp -e 1540 -c 1 -i 10 -a 1 -x {0.0 3.0 -1 ------- null}
r -t 0.31328 -s 0 -d 2 -p tcp -e 1540 -c 1 -i 11 -a 1 -x {0.0 3.0 2 ------- null}
+ -t 0.31328 -s 2 -d 3 -p tcp -e 1540 -c 1 -i 11 -a 1 -x {0.0 3.0 2 ------- null}
r -t 0.314 -s 1 -d 2 -p cbr -e 500 -c 2 -i 13 -a 2 -x {1.0 3.1 9 ------- null}
+ -t 0.314 -s 2 -d 3 -p cbr -e 500 -c 2 -i 13 -a 2 -x {1.0 3.1 9 ------- null}
- -t 0.314 -s 1 -d 2 -p cbr -e 500 -c 2 -i 15 -a 2 -x {1.0 3.1 11 ------- null}
h -t 0.314 -s 1 -d 2 -p cbr -e 500 -c 2 -i 15 -a 2 -x {1.0 3.1 -1 ------- null}
r -t 0.318 -s 2 -d 3 -p cbr -e 1000 -c 2 -i 8 -a 2 -x {1.0 3.1 6 ------- null}
r -t 0.322 -s 2 -d 3 -p cbr -e 500 -c 2 -i 9 -a 2 -x {1.0 3.1 7 ------- null}
+ -t 0.322 -s 1 -d 2 -p cbr -e 1000 -c 2 -i 16 -a 2 -x {1.0 3.1 12 ------- null}
- -t 0.322 -s 1 -d 2 -p cbr -e 1000 -c 2 -i 16 -a 2 -x {1.0 3.1 12 ------- null}
h -t 0.322 -s 1 -d 2 -p cbr -e 1000 -c 2 -i 16 -a 2 -x {1.0 3.1 -1 ------- null}
+ -t 0.322 -s 1 -d 2 -p cbr -e 500 -c 2 -i 17 -a 2 -x {1.0 3.1 13 ------- null}
r -t 0.324 -s 1 -d 2 -p cbr -e 1000 -c 2 -i 14 -a 2 -x {1.0 3.1 10 ------- null}
+ -t 0.324 -s 2 -d 3 -p cbr -e 1000 -c 2 -i 14 -a 2 -x {1.0 3.1 10 ------- null}
d -t 0.324 -s 2 -d 3 -p cbr -e 1000 -c 2 -i 14 -a 2 -x {1.0 3.1 10 ------- null}
- -t 0.32432 -s 2 -d 3 -p cbr -e 1000 -c 2 -i 12 -a 2 -x {1.0 3.1 8 ------- null}
h -t 0.32432 -s 2 -d 3 -p cbr -e 1000 -c 2 -i 12 -a 2 -x {1.0 3.1 -1 ------- null}
r -t 0.326 -s 1 -d 2 -p cbr -e 500 -c 2 -i 15 -a 2 -x {1.0 3.1 11 ------- null}
+ -t 0.326 -s 2 -d 3 -p cbr -e 500 -c 2 -i 15 -a 2 -x {1.0 3.1 11 ------- null}
- -t 0.326 -s 1 -d 2 -p cbr -e 500 -c 2 -i 17 -a 2 -x {1.0 3.1 13 ------- null}
h -t 0.326 -s 1 -d 2 -p cbr -e 500 -c 2 -i 17 -a 2 -x {1.0 3.1 -1 ------- null}
- -t 0.33232 -s 2 -d 3 -p tcp -e 1540 -c 1 -i 11 -a 1 -x {0.0 3.0 2 ------- null}
h -t 0.33232 -s 2 -d 3 -p tcp -e 1540 -c 1 -i 11 -a 1 -x {0.0 3.0 -1 ------- null}
+ -t 0.334 -s 1 -d 2 -p cbr -e 1000 -c 2 -i 18 -a 2 -x {1.0 3.1 14 ------- null}
- -t 0.334 -s 1 -d 2 -p cbr -e 1000 -c 2 -i 18 -a 2 -x {1.0 3.1 14 ------- null}
h -t 0.334 -s 1 -d 2 -p cbr -e 1000 -c 2 -i 18 -a 2 -x {1.0 3.1 -1 ------- null}
+ -t 0.334 -s 1 -d 2 -p cbr -e 500 -c 2 -i 19 -a 2 -x {1.0 3.1 15 ------- null}
r -t 0.33432 -s 2 -d 3 -p tcp -e 1540 -c 1 -i 10 -a 1 -x {0.0 3.0 1 ------- null}
+ -t 0.33432 -s 3 -d 2 -p ack -e 40 -c 1 -i 20 -a 1 -x {3.0 0.0 1 ------- null}
- -t 0.33432 -s 3 -d 2 -p ack -e 40 -c 1 -i 20 -a 1 -x {3.0 0.0 1 ------- null}
h -t 0.33432 -s 3 -d 2 -p ack -e 40 -c 1 -i 20 -a 1 -x {3.0 0.0 -1 ------- null}
r -t 0.336 -s 1 -d 2 -p cbr -e 1000 -c 2 -i 16 -a 2 -x {1.0 3.1 12 ------- null}
+ -t 0.336 -s 2 -d 3 -p cbr -e 1000 -c 2 -i 16 -a 2 -x {1.0 3.1 12 ------- null}
r -t 0.338 -s 1 -d 2 -p cbr -e 500 -c 2 -i 17 -a 2 -x {1.0 3.1 13 ------- null}
+ -t 0.338 -s 2 -d 3 -p cbr -e 500 -c 2 -i 17 -a 2 -x {1.0 3.1 13 ------- null}
d -t 0.338 -s 2 -d 3 -p cbr -e 500 -c 2 -i 17 -a 2 -x {1.0 3.1 13 ------- null}
- -t 0.338 -s 1 -d 2 -p cbr -e 500 -c 2 -i 19 -a 2 -x {1.0 3.1 15 ------- null}
h -t 0.338 -s 1 -d 2 -p cbr -e 500 -c 2 -i 19 -a 2 -x {1.0 3.1 -1 ------- null}
r -t 0.34232 -s 2 -d 3 -p cbr -e 1000 -c 2 -i 12 -a 2 -x {1.0 3.1 8 ------- null}
- -t 0.34464 -s 2 -d 3 -p cbr -e 500 -c 2 -i 13 -a 2 -x {1.0 3.1 9 ------- null}
h -t 0.34464 -s 2 -d 3 -p cbr -e 500 -c 2 -i 13 -a 2 -x {1.0 3.1 -1 ------- null}
r -t 0.34464 -s 3 -d 2 -p ack -e 40 -c 1 -i 20 -a 1 -x {3.0 0.0 1 ------- null}
+ -t 0.34464 -s 2 -d 0 -p ack -e 40 -c 1 -i 20 -a 1 -x {3.0 0.0 1 ------- null}
- -t 0.34464 -s 2 -d 0 -p ack -e 40 -c 1 -i 20 -a 1 -x {3.0 0.0 1 ------- null}
h -t 0.34464 -s 2 -d 0 -p ack -e 40 -c 1 -i 20 -a 1 -x {3.0 0.0 -1 ------- null}
+ -t 0.346 -s 1 -d 2 -p cbr -e 1000 -c 2 -i 21 -a 2 -x {1.0 3.1 16 ------- null}
- -t 0.346 -s 1 -d 2 -p cbr -e 1000 -c 2 -i 21 -a 2 -x {1.0 3.1 16 ------- null}
h -t 0.346 -s 1 -d 2 -p cbr -e 1000 -c 2 -i 21 -a 2 -x {1.0 3.1 -1 ------- null}
+ -t 0.346 -s 1 -d 2 -p cbr -e 500 -c 2 -i 22 -a 2 -x {1.0 3.1 17 ------- null}
r -t 0.348 -s 1 -d 2 -p cbr -e 1000 -c 2 -i 18 -a 2 -x {1.0 3.1 14 ------- null}
+ -t 0.348 -s 2 -d 3 -p cbr -e 1000 -c 2 -i 18 -a 2 -x {1.0 3.1 14 ------- null}
- -t 0.34864 -s 2 -d 3 -p cbr -e 500 -c 2 -i 15 -a 2 -x {1.0 3.1 11 ------- null}
h -t 0.34864 -s 2 -d 3 -p cbr -e 500 -c 2 -i 15 -a 2 -x {1.0 3.1 -1 ------- null}
r -t 0.35 -s 1 -d 2 -p cbr -e 500 -c 2 -i 19 -a 2 -x {1.0 3.1 15 ------- null}
+ -t 0.35 -s 2 -d 3 -p cbr -e 500 -c 2 -i 19 -a 2 -x {1.0 3.1 15 ------- null}
- -t 0.35 -s 1 -d 2 -p cbr -e 500 -c 2 -i 22 -a 2 -x {1.0 3.1 17 ------- null}
h -t 0.35 -s 1 -d 2 -p cbr -e 500 -c 2 -i 22 -a 2 -x {1.0 3.1 -1 ------- null}
- -t 0.35264 -s 2 -d 3 -p cbr -e 1000 -c 2 -i 16 -a 2 -x {1.0 3.1 12 ------- null}
h -t 0.35264 -s 2 -d 3 -p cbr -e 1000 -c 2 -i 16 -a 2 -x {1.0 3.1 -1 ------- null}
r -t 0.35464 -s 2 -d 3 -p tcp -e 1540 -c 1 -i 11 -a 1 -x {0.0 3.0 2 ------- null}
+ -t 0.35464 -s 3 -d 2 -p ack -e 40 -c 1 -i 23 -a 1 -x {3.0 0.0 2 ------- null}
- -t 0.35464 -s 3 -d 2 -p ack -e 40 -c 1 -i 23 -a 1 -x {3.0 0.0 2 ------- null}
h -t 0.35464 -s 3 -d 2 -p ack -e 40 -c 1 -i 23 -a 1 -x {3.0 0.0 -1 ------- null}
r -t 0.3548 -s 2 -d 0 -p ack -e 40 -c 1 -i 20 -a 1 -x {3.0 0.0 1 ------- null}
+ -t 0.3548 -s 0 -d 2 -p tcp -e 1540 -c 1 -i 24 -a 1 -x {0.0 3.0 3 ------- null}
- -t 0.3548 -s 0 -d 2 -p tcp -e 1540 -c 1 -i 24 -a 1 -x {0.0 3.0 3 ------- null}
h -t 0.3548 -s 0 -d 2 -p tcp -e 1540 -c 1 -i 24 -a 1 -x {0.0 3.0 -1 ------- null}
+ -t 0.3548 -s 0 -d 2 -p tcp -e 1540 -c 1 -i 25 -a 1 -x {0.0 3.0 4 ------- null}
+ -t 0.358 -s 1 -d 2 -p cbr -e 1000 -c 2 -i 26 -a 2 -x {1.0 3.1 18 ------- null}
- -t 0.358 -s 1 -d 2 -p cbr -e 1000 -c 2 -i 26 -a 2 -x {1.0 3.1 18 ------- null}
h -t 0.358 -s 1 -d 2 -p cbr -e 1000 -c 2 -i 26 -a 2 -x {1.0 3.1 -1 ------- null}
+ -t 0.358 -s 1 -d 2 -p cbr -e 500 -c 2 -i 27 -a 2 -x {1.0 3.1 19 ------- null}
r -t 0.35864 -s 2 -d 3 -p cbr -e 500 -c 2 -i 13 -a 2 -x {1.0 3.1 9 ------- null}
r -t 0.36 -s 1 -d 2 -p cbr -e 1000 -c 2 -i 21 -a 2 -x {1.0 3.1 16 ------- null}
+ -t 0.36 -s 2 -d 3 -p cbr -e 1000 -c 2 -i 21 -a 2 -x {1.0 3.1 16 ------- null}
- -t 0.36064 -s 2 -d 3 -p cbr -e 1000 -c 2 -i 18 -a 2 -x {1.0 3.1 14 ------- null}
h -t 0.36064 -s 2 -d 3 -p cbr -e 1000 -c 2 -i 18 -a 2 -x {1.0 3.1 -1 ------- null}
- -t 0.36096 -s 0 -d 2 -p tcp -e 1540 -c 1 -i 25 -a 1 -x {0.0 3.0 4 ------- null}
h -t 0.36096 -s 0 -d 2 -p tcp -e 1540 -c 1 -i 25 -a 1 -x {0.0 3.0 -1 ------- null}
r -t 0.362 -s 1 -d 2 -p cbr -e 500 -c 2 -i 22 -a 2 -x {1.0 3.1 17 ------- null}
+ -t 0.362 -s 2 -d 3 -p cbr -e 500 -c 2 -i 22 -a 2 -x {1.0 3.1 17 ------- null}
- -t 0.362 -s 1 -d 2 -p cbr -e 500 -c 2 -i 27 -a 2 -x {1.0 3.1 19 ------- null}
h -t 0.362 -s 1 -d 2 -p cbr -e 500 -c 2 -i 27 -a 2 -x {1.0 3.1 -1 ------- null}
r -t 0.36264 -s 2 -d 3 -p cbr -e 500 -c 2 -i 15 -a 2 -x {1.0 3.1 11 ------- null}
r -t 0.36496 -s 3 -d 2 -p ack -e 40 -c 1 -i 23 -a 1 -x {3.0 0.0 2 ------- null}
+ -t 0.36496 -s 2 -d 0 -p ack -e 40 -c 1 -i 23 -a 1 -x {3.0 0.0 2 ------- null}
- -t 0.36496 -s 2 -d 0 -p ack -e 40 -c 1 -i 23 -a 1 -x {3.0 0.0 2 ------- null}
h -t 0.36496 -s 2 -d 0 -p ack -e 40 -c 1 -i 23 -a 1 -x {3.0 0.0 -1 ------- null}
- -t 0.36864 -s 2 -d 3 -p cbr -e 500 -c 2 -i 19 -a 2 -x {1.0 3.1 15 ------- null}
h -t 0.36864 -s 2 -d 3 -p cbr -e 500 -c 2 -i 19 -a 2 -x {1.0 3.1 -1 ------- null}
+ -t 0.37 -s 1 -d 2 -p cbr -e 1000 -c 2 -i 28 -a 2 -x {1.0 3.1 20 ------- null}
- -t 0.37 -s 1 -d 2 -p cbr -e 1000 -c 2 -i 28 -a 2 -x {1.0 3.1 20 ------- null}
h -t 0.37 -s 1 -d 2 -p cbr -e 1000 -c 2 -i 28 -a 2 -x {1.0 3.1 -1 ------- null}
+ -t 0.37 -s 1 -d 2 -p cbr -e 500 -c 2 -i 29 -a 2 -x {1.0 3.1 21 ------- null}
r -t 0.37064 -s 2 -d 3 -p cbr -e 1000 -c 2 -i 16 -a 2 -x {1.0 3.1 12 ------- null}
r -t 0.37096 -s 0 -d 2 -p tcp -e 1540 -c 1 -i 24 -a 1 -x {0.0 3.0 3 ------- null}
+ -t 0.37096 -s 2 -d 3 -p tcp -e 1540 -c 1 -i 24 -a 1 -x {0.0 3.0 3 ------- null}
r -t 0.372 -s 1 -d 2 -p cbr -e 1000 -c 2 -i 26 -a 2 -x {1.0 3.1 18 ------- null}
+ -t 0.372 -s 2 -d 3 -p cbr -e 1000 -c 2 -i 26 -a 2 -x {1.0 3.1 18 ------- null}
d -t 0.372 -s 2 -d 3 -p cbr -e 1000 -c 2 -i 26 -a 2 -x {1.0 3.1 18 ------- null}
- -t 0.37264 -s 2 -d 3 -p cbr -e 1000 -c 2 -i 21 -a 2 -x {1.0 3.1 16 ------- null}
h -t 0.37264 -s 2 -d 3 -p cbr -e 1000 -c 2 -i 21 -a 2 -x {1.0 3.1 -1 ------- null}
r -t 0.374 -s 1 -d 2 -p cbr -e 500 -c 2 -i 27 -a 2 -x {1.0 3.1 19 ------- null}
+ -t 0.374 -s 2 -d 3 -p cbr -e 500 -c 2 -i 27 -a 2 -x {1.0 3.1 19 ------- null}
- -t 0.374 -s 1 -d 2 -p cbr -e 500 -c 2 -i 29 -a 2 -x {1.0 3.1 21 ------- null}
h -t 0.374 -s 1 -d 2 -p cbr -e 500 -c 2 -i 29 -a 2 -x {1.0 3.1 -1 ------- null}
r -t 0.37512 -s 2 -d 0 -p ack -e 40 -c 1 -i 23 -a 1 -x {3.0 0.0 2 ------- null}
+ -t 0.37512 -s 0 -d 2 -p tcp -e 1540 -c 1 -i 30 -a 1 -x {0.0 3.0 5 ------- null}
- -t 0.37512 -s 0 -d 2 -p tcp -e 1540 -c 1 -i 30 -a 1 -x {0.0 3.0 5 ------- null}
h -t 0.37512 -s 0 -d 2 -p tcp -e 1540 -c 1 -i 30 -a 1 -x {0.0 3.0 -1 ------- null}
+ -t 0.37512 -s 0 -d 2 -p tcp -e 1540 -c 1 -i 31 -a 1 -x {0.0 3.0 6 ------- null}
r -t 0.37712 -s 0 -d 2 -p tcp -e 1540 -c 1 -i 25 -a 1 -x {0.0 3.0 4 ------- null}
+ -t 0.37712 -s 2 -d 3 -p tcp -e 1540 -c 1 -i 25 -a 1 -x {0.0 3.0 4 ------- null}
d -t 0.37712 -s 2 -d 3 -p tcp -e 1540 -c 1 -i 25 -a 1 -x {0.0 3.0 4 ------- null}
r -t 0.37864 -s 2 -d 3 -p cbr -e 1000 -c 2 -i 18 -a 2 -x {1.0 3.1 14 ------- null}
- -t 0.38064 -s 2 -d 3 -p cbr -e 500 -c 2 -i 22 -a 2 -x {1.0 3.1 17 ------- null}
h -t 0.38064 -s 2 -d 3 -p cbr -e 500 -c 2 -i 22 -a 2 -x {1.0 3.1 -1 ------- null}
- -t 0.38128 -s 0 -d 2 -p tcp -e 1540 -c 1 -i 31 -a 1 -x {0.0 3.0 6 ------- null}
h -t 0.38128 -s 0 -d 2 -p tcp -e 1540 -c 1 -i 31 -a 1 -x {0.0 3.0 -1 ------- null}
+ -t 0.382 -s 1 -d 2 -p cbr -e 1000 -c 2 -i 32 -a 2 -x {1.0 3.1 22 ------- null}
- -t 0.382 -s 1 -d 2 -p cbr -e 1000 -c 2 -i 32 -a 2 -x {1.0 3.1 22 ------- null}
h -t 0.382 -s 1 -d 2 -p cbr -e 1000 -c 2 -i 32 -a 2 -x {1.0 3.1 -1 ------- null}
+ -t 0.382 -s 1 -d 2 -p cbr -e 500 -c 2 -i 33 -a 2 -x {1.0 3.1 23 ------- null}
r -t 0.38264 -s 2 -d 3 -p cbr -e 500 -c 2 -i 19 -a 2 -x {1.0 3.1 15 ------- null}
r -t 0.384 -s 1 -d 2 -p cbr -e 1000 -c 2 -i 28 -a 2 -x {1.0 3.1 20 ------- null}
+ -t 0.384 -s 2 -d 3 -p cbr -e 1000 -c 2 -i 28 -a 2 -x {1.0 3.1 20 ------- null}
- -t 0.38464 -s 2 -d 3 -p tcp -e 1540 -c 1 -i 24 -a 1 -x {0.0 3.0 3 ------- null}
h -t 0.38464 -s 2 -d 3 -p tcp -e 1540 -c 1 -i 24 -a 1 -x {0.0 3.0 -1 ------- null}
r -t 0.386 -s 1 -d 2 -p cbr -e 500 -c 2 -i 29 -a 2 -x {1.0 3.1 21 ------- null}
+ -t 0.386 -s 2 -d 3 -p cbr -e 500 -c 2 -i 29 -a 2 -x {1.0 3.1 21 ------- null}
- -t 0.386 -s 1 -d 2 -p cbr -e 500 -c 2 -i 33 -a 2 -x {1.0 3.1 23 ------- null}
h -t 0.386 -s 1 -d 2 -p cbr -e 500 -c 2 -i 33 -a 2 -x {1.0 3.1 -1 ------- null}
r -t 0.39064 -s 2 -d 3 -p cbr -e 1000 -c 2 -i 21 -a 2 -x {1.0 3.1 16 ------- null}
r -t 0.39128 -s 0 -d 2 -p tcp -e 1540 -c 1 -i 30 -a 1 -x {0.0 3.0 5 ------- null}
+ -t 0.39128 -s 2 -d 3 -p tcp -e 1540 -c 1 -i 30 -a 1 -x {0.0 3.0 5 ------- null}
d -t 0.39128 -s 2 -d 3 -p tcp -e 1540 -c 1 -i 30 -a 1 -x {0.0 3.0 5 ------- null}
+ -t 0.394 -s 1 -d 2 -p cbr -e 1000 -c 2 -i 34 -a 2 -x {1.0 3.1 24 ------- null}
- -t 0.394 -s 1 -d 2 -p cbr -e 1000 -c 2 -i 34 -a 2 -x {1.0 3.1 24 ------- null}
h -t 0.394 -s 1 -d 2 -p cbr -e 1000 -c 2 -i 34 -a 2 -x {1.0 3.1 -1 ------- null}
+ -t 0.394 -s 1 -d 2 -p cbr -e 500 -c 2 -i 35 -a 2 -x {1.0 3.1 25 ------- null}
r -t 0.39464 -s 2 -d 3 -p cbr -e 500 -c 2 -i 22 -a 2 -x {1.0 3.1 17 ------- null}
r -t 0.396 -s 1 -d 2 -p cbr -e 1000 -c 2 -i 32 -a 2 -x {1.0 3.1 22 ------- null}
+ -t 0.396 -s 2 -d 3 -p cbr -e 1000 -c 2 -i 32 -a 2 -x {1.0 3.1 22 ------- null}
d -t 0.396 -s 2 -d 3 -p cbr -e 1000 -c 2 -i 32 -a 2 -x {1.0 3.1 22 ------- null}
- -t 0.39696 -s 2 -d 3 -p cbr -e 500 -c 2 -i 27 -a 2 -x {1.0 3.1 19 ------- null}
h -t 0.39696 -s 2 -d 3 -p cbr -e 500 -c 2 -i 27 -a 2 -x {1.0 3.1 -1 ------- null}
r -t 0.39744 -s 0 -d 2 -p tcp -e 1540 -c 1 -i 31 -a 1 -x {0.0 3.0 6 ------- null}
+ -t 0.39744 -s 2 -d 3 -p tcp -e 1540 -c 1 -i 31 -a 1 -x {0.0 3.0 6 ------- null}
r -t 0.398 -s 1 -d 2 -p cbr -e 500 -c 2 -i 33 -a 2 -x {1.0 3.1 23 ------- null}
+ -t 0.398 -s 2 -d 3 -p cbr -e 500 -c 2 -i 33 -a 2 -x {1.0 3.1 23 ------- null}
d -t 0.398 -s 2 -d 3 -p cbr -e 500 -c 2 -i 33 -a 2 -x {1.0 3.1 23 ------- null}
- -t 0.398 -s 1 -d 2 -p cbr -e 500 -c 2 -i 35 -a 2 -x {1.0 3.1 25 ------- null}
h -t 0.398 -s 1 -d 2 -p cbr -e 500 -c 2 -i 35 -a 2 -x {1.0 3.1 -1 ------- null}
- -t 0.40096 -s 2 -d 3 -p cbr -e 1000 -c 2 -i 28 -a 2 -x {1.0 3.1 20 ------- null}
h -t 0.40096 -s 2 -d 3 -p cbr -e 1000 -c 2 -i 28 -a 2 -x {1.0 3.1 -1 ------- null}
+ -t 0.406 -s 1 -d 2 -p cbr -e 1000 -c 2 -i 36 -a 2 -x {1.0 3.1 26 ------- null}
- -t 0.406 -s 1 -d 2 -p cbr -e 1000 -c 2 -i 36 -a 2 -x {1.0 3.1 26 ------- null}
h -t 0.406 -s 1 -d 2 -p cbr -e 1000 -c 2 -i 36 -a 2 -x {1.0 3.1 -1 ------- null}
+ -t 0.406 -s 1 -d 2 -p cbr -e 500 -c 2 -i 37 -a 2 -x {1.0 3.1 27 ------- null}
r -t 0.40696 -s 2 -d 3 -p tcp -e 1540 -c 1 -i 24 -a 1 -x {0.0 3.0 3 ------- null}
+ -t 0.40696 -s 3 -d 2 -p ack -e 40 -c 1 -i 38 -a 1 -x {3.0 0.0 3 ------- null}
- -t 0.40696 -s 3 -d 2 -p ack -e 40 -c 1 -i 38 -a 1 -x {3.0 0.0 3 ------- null}
h -t 0.40696 -s 3 -d 2 -p ack -e 40 -c 1 -i 38 -a 1 -x {3.0 0.0 -1 ------- null}
r -t 0.408 -s 1 -d 2 -p cbr -e 1000 -c 2 -i 34 -a 2 -x {1.0 3.1 24 ------- null}
+ -t 0.408 -s 2 -d 3 -p cbr -e 1000 -c 2 -i 34 -a 2 -x {1.0 3.1 24 ------- null}
- -t 0.40896 -s 2 -d 3 -p cbr -e 500 -c 2 -i 29 -a 2 -x {1.0 3.1 21 ------- null}
h -t 0.40896 -s 2 -d 3 -p cbr -e 500 -c 2 -i 29 -a 2 -x {1.0 3.1 -1 ------- null}
r -t 0.41 -s 1 -d 2 -p cbr -e 500 -c 2 -i 35 -a 2 -x {1.0 3.1 25 ------- null}
+ -t 0.41 -s 2 -d 3 -p cbr -e 500 -c 2 -i 35 -a 2 -x {1.0 3.1 25 ------- null}
- -t 0.41 -s 1 -d 2 -p cbr -e 500 -c 2 -i 37 -a 2 -x {1.0 3.1 27 ------- null}
h -t 0.41 -s 1 -d 2 -p cbr -e 500 -c 2 -i 37 -a 2 -x {1.0 3.1 -1 ------- null}
r -t 0.41096 -s 2 -d 3 -p cbr -e 500 -c 2 -i 27 -a 2 -x {1.0 3.1 19 ------- null}
- -t 0.41296 -s 2 -d 3 -p tcp -e 1540 -c 1 -i 31 -a 1 -x {0.0 3.0 6 ------- null}
h -t 0.41296 -s 2 -d 3 -p tcp -e 1540 -c 1 -i 31 -a 1 -x {0.0 3.0 -1 ------- null}
r -t 0.41728 -s 3 -d 2 -p ack -e 40 -c 1 -i 38 -a 1 -x {3.0 0.0 3 ------- null}
+ -t 0.41728 -s 2 -d 0 -p ack -e 40 -c 1 -i 38 -a 1 -x {3.0 0.0 3 ------- null}
- -t 0.41728 -s 2 -d 0 -p ack -e 40 -c 1 -i 38 -a 1 -x {3.0 0.0 3 ------- null}
h -t 0.41728 -s 2 -d 0 -p ack -e 40 -c 1 -i 38 -a 1 -x {3.0 0.0 -1 ------- null}
+ -t 0.418 -s 1 -d 2 -p cbr -e 1000 -c 2 -i 39 -a 2 -x {1.0 3.1 28 ------- null}
- -t 0.418 -s 1 -d 2 -p cbr -e 1000 -c 2 -i 39 -a 2 -x {1.0 3.1 28 ------- null}
h -t 0.418 -s 1 -d 2 -p cbr -e 1000 -c 2 -i 39 -a 2 -x {1.0 3.1 -1 ------- null}
+ -t 0.418 -s 1 -d 2 -p cbr -e 500 -c 2 -i 40 -a 2 -x {1.0 3.1 29 ------- null}
r -t 0.41896 -s 2 -d 3 -p cbr -e 1000 -c 2 -i 28 -a 2 -x {1.0 3.1 20 ------- null}
r -t 0.42 -s 1 -d 2 -p cbr -e 1000 -c 2 -i 36 -a 2 -x {1.0 3.1 26 ------- null}
+ -t 0.42 -s 2 -d 3 -p cbr -e 1000 -c 2 -i 36 -a 2 -x {1.0 3.1 26 ------- null}
r -t 0.422 -s 1 -d 2 -p cbr -e 500 -c 2 -i 37 -a 2 -x {1.0 3.1 27 ------- null}
+ -t 0.422 -s 2 -d 3 -p cbr -e 500 -c 2 -i 37 -a 2 -x {1.0 3.1 27 ------- null}
d -t 0.422 -s 2 -d 3 -p cbr -e 500 -c 2 -i 37 -a 2 -x {1.0 3.1 27 ------- null}
- -t 0.422 -s 1 -d 2 -p cbr -e 500 -c 2 -i 40 -a 2 -x {1.0 3.1 29 ------- null}
h -t 0.422 -s 1 -d 2 -p cbr -e 500 -c 2 -i 40 -a 2 -x {1.0 3.1 -1 ------- null}
r -t 0.42296 -s 2 -d 3 -p cbr -e 500 -c 2 -i 29 -a 2 -x {1.0 3.1 21 ------- null}
- -t 0.42528 -s 2 -d 3 -p cbr -e 1000 -c 2 -i 34 -a 2 -x {1.0 3.1 24 ------- null}
h -t 0.42528 -s 2 -d 3 -p cbr -e 1000 -c 2 -i 34 -a 2 -x {1.0 3.1 -1 ------- null}
r -t 0.42744 -s 2 -d 0 -p ack -e 40 -c 1 -i 38 -a 1 -x {3.0 0.0 3 ------- null}
+ -t 0.42744 -s 0 -d 2 -p tcp -e 1540 -c 1 -i 41 -a 1 -x {0.0 3.0 7 ------- null}
- -t 0.42744 -s 0 -d 2 -p tcp -e 1540 -c 1 -i 41 -a 1 -x {0.0 3.0 7 ------- null}
h -t 0.42744 -s 0 -d 2 -p tcp -e 1540 -c 1 -i 41 -a 1 -x {0.0 3.0 -1 ------- null}
+ -t 0.42744 -s 0 -d 2 -p tcp -e 1540 -c 1 -i 42 -a 1 -x {0.0 3.0 8 ------- null}
+ -t 0.43 -s 1 -d 2 -p cbr -e 1000 -c 2 -i 43 -a 2 -x {1.0 3.1 30 ------- null}
- -t 0.43 -s 1 -d 2 -p cbr -e 1000 -c 2 -i 43 -a 2 -x {1.0 3.1 30 ------- null}
h -t 0.43 -s 1 -d 2 -p cbr -e 1000 -c 2 -i 43 -a 2 -x {1.0 3.1 -1 ------- null}
+ -t 0.43 -s 1 -d 2 -p cbr -e 500 -c 2 -i 44 -a 2 -x {1.0 3.1 31 ------- null}
r -t 0.432 -s 1 -d 2 -p cbr -e 1000 -c 2 -i 39 -a 2 -x {1.0 3.1 28 ------- null}
+ -t 0.432 -s 2 -d 3 -p cbr -e 1000 -c 2 -i 39 -a 2 -x {1.0 3.1 28 ------- null}
- -t 0.43328 -s 2 -d 3 -p cbr -e 500 -c 2 -i 35 -a 2 -x {1.0 3.1 25 ------- null}
h -t 0.43328 -s 2 -d 3 -p cbr -e 500 -c 2 -i 35 -a 2 -x {1.0 3.1 -1 ------- null}
- -t 0.4336 -s 0 -d 2 -p tcp -e 1540 -c 1 -i 42 -a 1 -x {0.0 3.0 8 ------- null}
h -t 0.4336 -s 0 -d 2 -p tcp -e 1540 -c 1 -i 42 -a 1 -x {0.0 3.0 -1 ------- null}
r -t 0.434 -s 1 -d 2 -p cbr -e 500 -c 2 -i 40 -a 2 -x {1.0 3.1 29 ------- null}
+ -t 0.434 -s 2 -d 3 -p cbr -e 500 -c 2 -i 40 -a 2 -x {1.0 3.1 29 ------- null}
- -t 0.434 -s 1 -d 2 -p cbr -e 500 -c 2 -i 44 -a 2 -x {1.0 3.1 31 ------- null}
h -t 0.434 -s 1 -d 2 -p cbr -e 500 -c 2 -i 44 -a 2 -x {1.0 3.1 -1 ------- null}
r -t 0.43528 -s 2 -d 3 -p tcp -e 1540 -c 1 -i 31 -a 1 -x {0.0 3.0 6 ------- null}
+ -t 0.43528 -s 3 -d 2 -p ack -e 40 -c 1 -i 45 -a 1 -x {3.0 0.0 3 ------- null}
- -t 0.43528 -s 3 -d 2 -p ack -e 40 -c 1 -i 45 -a 1 -x {3.0 0.0 3 ------- null}
h -t 0.43528 -s 3 -d 2 -p ack -e 40 -c 1 -i 45 -a 1 -x {3.0 0.0 -1 ------- null}
- -t 0.43728 -s 2 -d 3 -p cbr -e 1000 -c 2 -i 36 -a 2 -x {1.0 3.1 26 ------- null}
h -t 0.43728 -s 2 -d 3 -p cbr -e 1000 -c 2 -i 36 -a 2 -x {1.0 3.1 -1 ------- null}
+ -t 0.442 -s 1 -d 2 -p cbr -e 1000 -c 2 -i 46 -a 2 -x {1.0 3.1 32 ------- null}
- -t 0.442 -s 1 -d 2 -p cbr -e 1000 -c 2 -i 46 -a 2 -x {1.0 3.1 32 ------- null}
h -t 0.442 -s 1 -d 2 -p cbr -e 1000 -c 2 -i 46 -a 2 -x {1.0 3.1 -1 ------- null}
+ -t 0.442 -s 1 -d 2 -p cbr -e 500 -c 2 -i 47 -a 2 -x {1.0 3.1 33 ------- null}
r -t 0.44328 -s 2 -d 3 -p cbr -e 1000 -c 2 -i 34 -a 2 -x {1.0 3.1 24 ------- null}
r -t 0.4436 -s 0 -d 2 -p tcp -e 1540 -c 1 -i 41 -a 1 -x {0.0 3.0 7 ------- null}
+ -t 0.4436 -s 2 -d 3 -p tcp -e 1540 -c 1 -i 41 -a 1 -x {0.0 3.0 7 ------- null}
r -t 0.444 -s 1 -d 2 -p cbr -e 1000 -c 2 -i 43 -a 2 -x {1.0 3.1 30 ------- null}
+ -t 0.444 -s 2 -d 3 -p cbr -e 1000 -c 2 -i 43 -a 2 -x {1.0 3.1 30 ------- null}
d -t 0.444 -s 2 -d 3 -p cbr -e 1000 -c 2 -i 43 -a 2 -x {1.0 3.1 30 ------- null}
- -t 0.44528 -s 2 -d 3 -p cbr -e 1000 -c 2 -i 39 -a 2 -x {1.0 3.1 28 ------- null}
h -t 0.44528 -s 2 -d 3 -p cbr -e 1000 -c 2 -i 39 -a 2 -x {1.0 3.1 -1 ------- null}
r -t 0.4456 -s 3 -d 2 -p ack -e 40 -c 1 -i 45 -a 1 -x {3.0 0.0 3 ------- null}
+ -t 0.4456 -s 2 -d 0 -p ack -e 40 -c 1 -i 45 -a 1 -x {3.0 0.0 3 ------- null}
- -t 0.4456 -s 2 -d 0 -p ack -e 40 -c 1 -i 45 -a 1 -x {3.0 0.0 3 ------- null}
h -t 0.4456 -s 2 -d 0 -p ack -e 40 -c 1 -i 45 -a 1 -x {3.0 0.0 -1 ------- null}
r -t 0.446 -s 1 -d 2 -p cbr -e 500 -c 2 -i 44 -a 2 -x {1.0 3.1 31 ------- null}
+ -t 0.446 -s 2 -d 3 -p cbr -e 500 -c 2 -i 44 -a 2 -x {1.0 3.1 31 ------- null}
- -t 0.446 -s 1 -d 2 -p cbr -e 500 -c 2 -i 47 -a 2 -x {1.0 3.1 33 ------- null}
h -t 0.446 -s 1 -d 2 -p cbr -e 500 -c 2 -i 47 -a 2 -x {1.0 3.1 -1 ------- null}
r -t 0.44728 -s 2 -d 3 -p cbr -e 500 -c 2 -i 35 -a 2 -x {1.0 3.1 25 ------- null}
r -t 0.44976 -s 0 -d 2 -p tcp -e 1540 -c 1 -i 42 -a 1 -x {0.0 3.0 8 ------- null}
+ -t 0.44976 -s 2 -d 3 -p tcp -e 1540 -c 1 -i 42 -a 1 -x {0.0 3.0 8 ------- null}
d -t 0.44976 -s 2 -d 3 -p tcp -e 1540 -c 1 -i 42 -a 1 -x {0.0 3.0 8 ------- null}
- -t 0.45328 -s 2 -d 3 -p cbr -e 500 -c 2 -i 40 -a 2 -x {1.0 3.1 29 ------- null}
h -t 0.45328 -s 2 -d 3 -p cbr -e 500 -c 2 -i 40 -a 2 -x {1.0 3.1 -1 ------- null}
+ -t 0.454 -s 1 -d 2 -p cbr -e 1000 -c 2 -i 48 -a 2 -x {1.0 3.1 34 ------- null}
- -t 0.454 -s 1 -d 2 -p cbr -e 1000 -c 2 -i 48 -a 2 -x {1.0 3.1 34 ------- null}
h -t 0.454 -s 1 -d 2 -p cbr -e 1000 -c 2 -i 48 -a 2 -x {1.0 3.1 -1 ------- null}
+ -t 0.454 -s 1 -d 2 -p cbr -e 500 -c 2 -i 49 -a 2 -x {1.0 3.1 35 ------- null}
r -t 0.45528 -s 2 -d 3 -p cbr -e 1000 -c 2 -i 36 -a 2 -x {1.0 3.1 26 ------- null}
r -t 0.45576 -s 2 -d 0 -p ack -e 40 -c 1 -i 45 -a 1 -x {3.0 0.0 3 ------- null}
+ -t 0.45576 -s 0 -d 2 -p tcp -e 1540 -c 1 -i 50 -a 1 -x {0.0 3.0 9 ------- null}
- -t 0.45576 -s 0 -d 2 -p tcp -e 1540 -c 1 -i 50 -a 1 -x {0.0 3.0 9 ------- null}
h -t 0.45576 -s 0 -d 2 -p tcp -e 1540 -c 1 -i 50 -a 1 -x {0.0 3.0 -1 ------- null}
r -t 0.456 -s 1 -d 2 -p cbr -e 1000 -c 2 -i 46 -a 2 -x {1.0 3.1 32 ------- null}
+ -t 0.456 -s 2 -d 3 -p cbr -e 1000 -c 2 -i 46 -a 2 -x {1.0 3.1 32 ------- null}
- -t 0.45728 -s 2 -d 3 -p tcp -e 1540 -c 1 -i 41 -a 1 -x {0.0 3.0 7 ------- null}
h -t 0.45728 -s 2 -d 3 -p tcp -e 1540 -c 1 -i 41 -a 1 -x {0.0 3.0 -1 ------- null}
r -t 0.458 -s 1 -d 2 -p cbr -e 500 -c 2 -i 47 -a 2 -x {1.0 3.1 33 ------- null}
+ -t 0.458 -s 2 -d 3 -p cbr -e 500 -c 2 -i 47 -a 2 -x {1.0 3.1 33 ------- null}
- -t 0.458 -s 1 -d 2 -p cbr -e 500 -c 2 -i 49 -a 2 -x {1.0 3.1 35 ------- null}
h -t 0.458 -s 1 -d 2 -p cbr -e 500 -c 2 -i 49 -a 2 -x {1.0 3.1 -1 ------- null}
r -t 0.46328 -s 2 -d 3 -p cbr -e 1000 -c 2 -i 39 -a 2 -x {1.0 3.1 28 ------- null}
+ -t 0.466 -s 1 -d 2 -p cbr -e 1000 -c 2 -i 51 -a 2 -x {1.0 3.1 36 ------- null}
- -t 0.466 -s 1 -d 2 -p cbr -e 1000 -c 2 -i 51 -a 2 -x {1.0 3.1 36 ------- null}
h -t 0.466 -s 1 -d 2 -p cbr -e 1000 -c 2 -i 51 -a 2 -x {1.0 3.1 -1 ------- null}