V -t * -v 1.0a5 -a 0
A -t * -n 1 -p 0 -o 0xffffffff -c 31 -a 1
A -t * -h 1 -m 2147483647 -s 0
c -t * -i 4 -n yellow
c -t * -i 1 -n blue
c -t * -i 2 -n red
c -t * -i 3 -n green
n -t * -a 0 -s 0 -S UP -v circle -c black -i black
n -t * -a 1 -s 1 -S UP -v circle -c black -i black
n -t * -a 2 -s 2 -S UP -v circle -c black -i black
n -t * -a 3 -s 3 -S UP -v circle -c black -i black
l -t * -s 0 -d 2 -S UP -r 2000000 -D 0.01 -c black -o right-down
l -t * -s 1 -d 2 -S UP -r 2000000 -D 0.01 -c black -o right-up
l -t * -s 2 -d 3 -S UP -r 1000000 -D 0.040000000000000001 -c black -o right
q -t * -s 3 -d 2 -a 0.5
q -t * -s 2 -d 3 -a 0.5
+ -t 0.25 -s 0 -d 2 -p tcp -e 40 -c 1 -i 0 -a 1 -x {0.0 3.0 0 ------- null}
- -t 0.25 -s 0 -d 2 -p tcp -e 40 -c 1 -i 0 -a 1 -x {0.0 3.0 0 ------- null}
h -t 0.25 -s 0 -d 2 -p tcp -e 40 -c 1 -i 0 -a 1 -x {0.0 3.0 -1 ------- null}
+ -t 0.26 -s 1 -d 2 -p tcp -e 40 -c 2 -i 1 -a 2 -x {1.0 3.1 0 ------- null}
- -t 0.26 -s 1 -d 2 -p tcp -e 40 -c 2 -i 1 -a 2 -x {1.0 3.1 0 ------- null}
h -t 0.26 -s 1 -d 2 -p tcp -e 40 -c 2 -i 1 -a 2 -x {1.0 3.1 -1 ------- null}
r -t 0.26016 -s 0 -d 2 -p tcp -e 40 -c 1 -i 0 -a 1 -x {0.0 3.0 0 ------- null}
+ -t 0.26016 -s 2 -d 3 -p tcp -e 40 -c 1 -i 0 -a 1 -x {0.0 3.0 0 ------- null}
- -t 0.26016 -s 2 -d 3 -p tcp -e 40 -c 1 -i 0 -a 1 -x {0.0 3.0 0 ------- null}
h -t 0.26016 -s 2 -d 3 -p tcp -e 40 -c 1 -i 0 -a 1 -x {0.0 3.0 -1 ------- null}
r -t 0.27016 -s 1 -d 2 -p tcp -e 40 -c 2 -i 1 -a 2 -x {1.0 3.1 0 ------- null}
+ -t 0.27016 -s 2 -d 3 -p tcp -e 40 -c 2 -i 1 -a 2 -x {1.0 3.1 0 ------- null}
- -t 0.27016 -s 2 -d 3 -p tcp -e 40 -c 2 -i 1 -a 2 -x {1.0 3.1 0 ------- null}
h -t 0.27016 -s 2 -d 3 -p tcp -e 40 -c 2 -i 1 -a 2 -x {1.0 3.1 -1 ------- null}
r -t 0.30048 -s 2 -d 3 -p tcp -e 40 -c 1 -i 0 -a 1 -x {0.0 3.0 0 ------- null}
+ -t 0.30048 -s 3 -d 2 -p ack -e 40 -c 1 -i 2 -a 1 -x {3.0 0.0 0 ------- null}
- -t 0.30048 -s 3 -d 2 -p ack -e 40 -c 1 -i 2 -a 1 -x {3.0 0.0 0 ------- null}
h -t 0.30048 -s 3 -d 2 -p ack -e 40 -c 1 -i 2 -a 1 -x {3.0 0.0 -1 ------- null}
r -t 0.31048 -s 2 -d 3 -p tcp -e 40 -c 2 -i 1 -a 2 -x {1.0 3.1 0 ------- null}
+ -t 0.31048 -s 3 -d 2 -p ack -e 40 -c 2 -i 3 -a 2 -x {3.1 1.0 0 ------- null}
- -t 0.31048 -s 3 -d 2 -p ack -e 40 -c 2 -i 3 -a 2 -x {3.1 1.0 0 ------- null}
h -t 0.31048 -s 3 -d 2 -p ack -e 40 -c 2 -i 3 -a 2 -x {3.1 1.0 -1 ------- null}
r -t 0.3408 -s 3 -d 2 -p ack -e 40 -c 1 -i 2 -a 1 -x {3.0 0.0 0 ------- null}
+ -t 0.3408 -s 2 -d 0 -p ack -e 40 -c 1 -i 2 -a 1 -x {3.0 0.0 0 ------- null}
- -t 0.3408 -s 2 -d 0 -p ack -e 40 -c 1 -i 2 -a 1 -x {3.0 0.0 0 ------- null}
h -t 0.3408 -s 2 -d 0 -p ack -e 40 -c 1 -i 2 -a 1 -x {3.0 0.0 -1 ------- null}
r -t 0.3508 -s 3 -d 2 -p ack -e 40 -c 2 -i 3 -a 2 -x {3.1 1.0 0 ------- null}
+ -t 0.3508 -s 2 -d 1 -p ack -e 40 -c 2 -i 3 -a 2 -x {3.1 1.0 0 ------- null}
- -t 0.3508 -s 2 -d 1 -p ack -e 40 -c 2 -i 3 -a 2 -x {3.1 1.0 0 ------- null}
h -t 0.3508 -s 2 -d 1 -p ack -e 40 -c 2 -i 3 -a 2 -x {3.1 1.0 -1 ------- null}
r -t 0.35096 -s 2 -d 0 -p ack -e 40 -c 1 -i 2 -a 1 -x {3.0 0.0 0 ------- null}
+ -t 0.35096 -s 0 -d 2 -p tcp -e 1540 -c 1 -i 4 -a 1 -x {0.0 3.0 1 ------- null}
- -t 0.35096 -s 0 -d 2 -p tcp -e 1540 -c 1 -i 4 -a 1 -x {0.0 3.0 1 ------- null}
h -t 0.35096 -s 0 -d 2 -p tcp -e 1540 -c 1 -i 4 -a 1 -x {0.0 3.0 -1 ------- null}
+ -t 0.35096 -s 0 -d 2 -p tcp -e 1540 -c 1 -i 5 -a 1 -x {0.0 3.0 2 ------- null}
- -t 0.35712 -s 0 -d 2 -p tcp -e 1540 -c 1 -i 5 -a 1 -x {0.0 3.0 2 ------- null}
h -t 0.35712 -s 0 -d 2 -p tcp -e 1540 -c 1 -i 5 -a 1 -x {0.0 3.0 -1 ------- null}
r -t 0.36096 -s 2 -d 1 -p ack -e 40 -c 2 -i 3 -a 2 -x {3.1 1.0 0 ------- null}
+ -t 0.36096 -s 1 -d 2 -p tcp -e 1540 -c 2 -i 6 -a 2 -x {1.0 3.1 1 ------- null}
- -t 0.36096 -s 1 -d 2 -p tcp -e 1540 -c 2 -i 6 -a 2 -x {1.0 3.1 1 ------- null}
h -t 0.36096 -s 1 -d 2 -p tcp -e 1540 -c 2 -i 6 -a 2 -x {1.0 3.1 -1 ------- null}
+ -t 0.36096 -s 1 -d 2 -p tcp -e 1540 -c 2 -i 7 -a 2 -x {1.0 3.1 2 ------- null}
r -t 0.36712 -s 0 -d 2 -p tcp -e 1540 -c 1 -i 4 -a 1 -x {0.0 3.0 1 ------- null}
+ -t 0.36712 -s 2 -d 3 -p tcp -e 1540 -c 1 -i 4 -a 1 -x {0.0 3.0 1 ------- null}
- -t 0.36712 -s 2 -d 3 -p tcp -e 1540 -c 1 -i 4 -a 1 -x {0.0 3.0 1 ------- null}
h -t 0.36712 -s 2 -d 3 -p tcp -e 1540 -c 1 -i 4 -a 1 -x {0.0 3.0 -1 ------- null}
- -t 0.36712 -s 1 -d 2 -p tcp -e 1540 -c 2 -i 7 -a 2 -x {1.0 3.1 2 ------- null}
h -t 0.36712 -s 1 -d 2 -p tcp -e 1540 -c 2 -i 7 -a 2 -x {1.0 3.1 -1 ------- null}
r -t 0.37328 -s 0 -d 2 -p tcp -e 1540 -c 1 -i 5 -a 1 -x {0.0 3.0 2 ------- null}
+ -t 0.37328 -s 2 -d 3 -p tcp -e 1540 -c 1 -i 5 -a 1 -x {0.0 3.0 2 ------- null}
r -t 0.37712 -s 1 -d 2 -p tcp -e 1540 -c 2 -i 6 -a 2 -x {1.0 3.1 1 ------- null}
+ -t 0.37712 -s 2 -d 3 -p tcp -e 1540 -c 2 -i 6 -a 2 -x {1.0 3.1 1 ------- null}
- -t 0.37944 -s 2 -d 3 -p tcp -e 1540 -c 1 -i 5 -a 1 -x {0.0 3.0 2 ------- null}
h -t 0.37944 -s 2 -d 3 -p tcp -e 1540 -c 1 -i 5 -a 1 -x {0.0 3.0 -1 ------- null}
r -t 0.38328 -s 1 -d 2 -p tcp -e 1540 -c 2 -i 7 -a 2 -x {1.0 3.1 2 ------- null}
+ -t 0.38328 -s 2 -d 3 -p tcp -e 1540 -c 2 -i 7 -a 2 -x {1.0 3.1 2 ------- null}
- -t 0.39176 -s 2 -d 3 -p tcp -e 1540 -c 2 -i 6 -a 2 -x {1.0 3.1 1 ------- null}
h -t 0.39176 -s 2 -d 3 -p tcp -e 1540 -c 2 -i 6 -a 2 -x {1.0 3.1 -1 ------- null}
- -t 0.40408 -s 2 -d 3 -p tcp -e 1540 -c 2 -i 7 -a 2 -x {1.0 3.1 2 ------- null}
h -t 0.40408 -s 2 -d 3 -p tcp -e 1540 -c 2 -i 7 -a 2 -x {1.0 3.1 -1 ------- null}
r -t 0.41944 -s 2 -d 3 -p tcp -e 1540 -c 1 -i 4 -a 1 -x {0.0 3.0 1 ------- null}
+ -t 0.41944 -s 3 -d 2 -p ack -e 40 -c 1 -i 8 -a 1 -x {3.0 0.0 1 ------- null}
- -t 0.41944 -s 3 -d 2 -p ack -e 40 -c 1 -i 8 -a 1 -x {3.0 0.0 1 ------- null}
h -t 0.41944 -s 3 -d 2 -p ack -e 40 -c 1 -i 8 -a 1 -x {3.0 0.0 -1 ------- null}
r -t 0.43176 -s 2 -d 3 -p tcp -e 1540 -c 1 -i 5 -a 1 -x {0.0 3.0 2 ------- null}
+ -t 0.43176 -s 3 -d 2 -p ack -e 40 -c 1 -i 9 -a 1 -x {3.0 0.0 2 ------- null}
- -t 0.43176 -s 3 -d 2 -p ack -e 40 -c 1 -i 9 -a 1 -x {3.0 0.0 2 ------- null}
h -t 0.43176 -s 3 -d 2 -p ack -e 40 -c 1 -i 9 -a 1 -x {3.0 0.0 -1 ------- null}
r -t 0.44408 -s 2 -d 3 -p tcp -e 1540 -c 2 -i 6 -a 2 -x {1.0 3.1 1 ------- null}
+ -t 0.44408 -s 3 -d 2 -p ack -e 40 -c 2 -i 10 -a 2 -x {3.1 1.0 1 ------- null}
- -t 0.44408 -s 3 -d 2 -p ack -e 40 -c 2 -i 10 -a 2 -x {3.1 1.0 1 ------- null}
h -t 0.44408 -s 3 -d 2 -p ack -e 40 -c 2 -i 10 -a 2 -x {3.1 1.0 -1 ------- null}
r -t 0.4564 -s 2 -d 3 -p tcp -e 1540 -c 2 -i 7 -a 2 -x {1.0 3.1 2 ------- null}
+ -t 0.4564 -s 3 -d 2 -p ack -e 40 -c 2 -i 11 -a 2 -x {3.1 1.0 2 ------- null}
- -t 0.4564 -s 3 -d 2 -p ack -e 40 -c 2 -i 11 -a 2 -x {3.1 1.0 2 ------- null}
h -t 0.4564 -s 3 -d 2 -p ack -e 40 -c 2 -i 11 -a 2 -x {3.1 1.0 -1 ------- null}
r -t 0.45976 -s 3 -d 2 -p ack -e 40 -c 1 -i 8 -a 1 -x {3.0 0.0 1 ------- null}
+ -t 0.45976 -s 2 -d 0 -p ack -e 40 -c 1 -i 8 -a 1 -x {3.0 0.0 1 ------- null}
- -t 0.45976 -s 2 -d 0 -p ack -e 40 -c 1 -i 8 -a 1 -x {3.0 0.0 1 ------- null}
h -t 0.45976 -s 2 -d 0 -p ack -e 40 -c 1 -i 8 -a 1 -x {3.0 0.0 -1 ------- null}
r -t 0.46992 -s 2 -d 0 -p ack -e 40 -c 1 -i 8 -a 1 -x {3.0 0.0 1 ------- null}
+ -t 0.46992 -s 0 -d 2 -p tcp -e 1540 -c 1 -i 12 -a 1 -x {0.0 3.0 3 ------- null}
- -t 0.46992 -s 0 -d 2 -p tcp -e 1540 -c 1 -i 12 -a 1 -x {0.0 3.0 3 ------- null}
h -t 0.46992 -s 0 -d 2 -p tcp -e 1540 -c 1 -i 12 -a 1 -x {0.0 3.0 -1 ------- null}
+ -t 0.46992 -s 0 -d 2 -p tcp -e 1540 -c 1 -i 13 -a 1 -x {0.0 3.0 4 ------- null}
r -t 0.47208 -s 3 -d 2 -p ack -e 40 -c 1 -i 9 -a 1 -x {3.0 0.0 2 ------- null}
+ -t 0.47208 -s 2 -d 0 -p ack -e 40 -c 1 -i 9 -a 1 -x {3.0 0.0 2 ------- null}
- -t 0.47208 -s 2 -d 0 -p ack -e 40 -c 1 -i 9 -a 1 -x {3.0 0.0 2 ------- null}
h -t 0.47208 -s 2 -d 0 -p ack -e 40 -c 1 -i 9 -a 1 -x {3.0 0.0 -1 ------- null}
- -t 0.47608 -s 0 -d 2 -p tcp -e 1540 -c 1 -i 13 -a 1 -x {0.0 3.0 4 ------- null}
h -t 0.47608 -s 0 -d 2 -p tcp -e 1540 -c 1 -i 13 -a 1 -x {0.0 3.0 -1 ------- null}
r -t 0.48224 -s 2 -d 0 -p ack -e 40 -c 1 -i 9 -a 1 -x {3.0 0.0 2 ------- null}
+ -t 0.48224 -s 0 -d 2 -p tcp -e 1540 -c 1 -i 14 -a 1 -x {0.0 3.0 5 ------- null}
+ -t 0.48224 -s 0 -d 2 -p tcp -e 1540 -c 1 -i 15 -a 1 -x {0.0 3.0 6 ------- null}
- -t 0.48224 -s 0 -d 2 -p tcp -e 1540 -c 1 -i 14 -a 1 -x {0.0 3.0 5 ------- null}
h -t 0.48224 -s 0 -d 2 -p tcp -e 1540 -c 1 -i 14 -a 1 -x {0.0 3.0 -1 ------- null}
r -t 0.4844 -s 3 -d 2 -p ack -e 40 -c 2 -i 10 -a 2 -x {3.1 1.0 1 ------- null}
+ -t 0.4844 -s 2 -d 1 -p ack -e 40 -c 2 -i 10 -a 2 -x {3.1 1.0 1 ------- null}
- -t 0.4844 -s 2 -d 1 -p ack -e 40 -c 2 -i 10 -a 2 -x {3.1 1.0 1 ------- null}
h -t 0.4844 -s 2 -d 1 -p ack -e 40 -c 2 -i 10 -a 2 -x {3.1 1.0 -1 ------- null}
r -t 0.48608 -s 0 -d 2 -p tcp -e 1540 -c 1 -i 12 -a 1 -x {0.0 3.0 3 ------- null}
+ -t 0.48608 -s 2 -d 3 -p tcp -e 1540 -c 1 -i 12 -a 1 -x {0.0 3.0 3 ------- null}
- -t 0.48608 -s 2 -d 3 -p tcp -e 1540 -c 1 -i 12 -a 1 -x {0.0 3.0 3 ------- null}
h -t 0.48608 -s 2 -d 3 -p tcp -e 1540 -c 1 -i 12 -a 1 -x {0.0 3.0 -1 ------- null}
- -t 0.4884 -s 0 -d 2 -p tcp -e 1540 -c 1 -i 15 -a 1 -x {0.0 3.0 6 ------- null}
h -t 0.4884 -s 0 -d 2 -p tcp -e 1540 -c 1 -i 15 -a 1 -x {0.0 3.0 -1 ------- null}
r -t 0.49224 -s 0 -d 2 -p tcp -e 1540 -c 1 -i 13 -a 1 -x {0.0 3.0 4 ------- null}
+ -t 0.49224 -s 2 -d 3 -p tcp -e 1540 -c 1 -i 13 -a 1 -x {0.0 3.0 4 ------- null}
r -t 0.49456 -s 2 -d 1 -p ack -e 40 -c 2 -i 10 -a 2 -x {3.1 1.0 1 ------- null}
+ -t 0.49456 -s 1 -d 2 -p tcp -e 1540 -c 2 -i 16 -a 2 -x {1.0 3.1 3 ------- null}
- -t 0.49456 -s 1 -d 2 -p tcp -e 1540 -c 2 -i 16 -a 2 -x {1.0 3.1 3 ------- null}
h -t 0.49456 -s 1 -d 2 -p tcp -e 1540 -c 2 -i 16 -a 2 -x {1.0 3.1 -1 ------- null}
+ -t 0.49456 -s 1 -d 2 -p tcp -e 1540 -c 2 -i 17 -a 2 -x {1.0 3.1 4 ------- null}
r -t 0.49672 -s 3 -d 2 -p ack -e 40 -c 2 -i 11 -a 2 -x {3.1 1.0 2 ------- null}
+ -t 0.49672 -s 2 -d 1 -p ack -e 40 -c 2 -i 11 -a 2 -x {3.1 1.0 2 ------- null}
- -t 0.49672 -s 2 -d 1 -p ack -e 40 -c 2 -i 11 -a 2 -x {3.1 1.0 2 ------- null}
h -t 0.49672 -s 2 -d 1 -p ack -e 40 -c 2 -i 11 -a 2 -x {3.1 1.0 -1 ------- null}
r -t 0.4984 -s 0 -d 2 -p tcp -e 1540 -c 1 -i 14 -a 1 -x {0.0 3.0 5 ------- null}
+ -t 0.4984 -s 2 -d 3 -p tcp -e 1540 -c 1 -i 14 -a 1 -x {0.0 3.0 5 ------- null}
- -t 0.4984 -s 2 -d 3 -p tcp -e 1540 -c 1 -i 13 -a 1 -x {0.0 3.0 4 ------- null}
h -t 0.4984 -s 2 -d 3 -p tcp -e 1540 -c 1 -i 13 -a 1 -x {0.0 3.0 -1 ------- null}
- -t 0.50072 -s 1 -d 2 -p tcp -e 1540 -c 2 -i 17 -a 2 -x {1.0 3.1 4 ------- null}
h -t 0.50072 -s 1 -d 2 -p tcp -e 1540 -c 2 -i 17 -a 2 -x {1.0 3.1 -1 ------- null}
r -t 0.50456 -s 0 -d 2 -p tcp -e 1540 -c 1 -i 15 -a 1 -x {0.0 3.0 6 ------- null}
+ -t 0.50456 -s 2 -d 3 -p tcp -e 1540 -c 1 -i 15 -a 1 -x {0.0 3.0 6 ------- null}
r -t 0.50688 -s 2 -d 1 -p ack -e 40 -c 2 -i 11 -a 2 -x {3.1 1.0 2 ------- null}
+ -t 0.50688 -s 1 -d 2 -p tcp -e 1540 -c 2 -i 18 -a 2 -x {1.0 3.1 5 ------- null}
+ -t 0.50688 -s 1 -d 2 -p tcp -e 1540 -c 2 -i 19 -a 2 -x {1.0 3.1 6 ------- null}
- -t 0.50688 -s 1 -d 2 -p tcp -e 1540 -c 2 -i 18 -a 2 -x {1.0 3.1 5 ------- null}
h -t 0.50688 -s 1 -d 2 -p tcp -e 1540 -c 2 -i 18 -a 2 -x {1.0 3.1 -1 ------- null}
r -t 0.51072 -s 1 -d 2 -p tcp -e 1540 -c 2 -i 16 -a 2 -x {1.0 3.1 3 ------- null}
+ -t 0.51072 -s 2 -d 3 -p tcp -e 1540 -c 2 -i 16 -a 2 -x {1.0 3.1 3 ------- null}
- -t 0.51072 -s 2 -d 3 -p tcp -e 1540 -c 1 -i 14 -a 1 -x {0.0 3.0 5 ------- null}
h -t 0.51072 -s 2 -d 3 -p tcp -e 1540 -c 1 -i 14 -a 1 -x {0.0 3.0 -1 ------- null}
- -t 0.51304 -s 1 -d 2 -p tcp -e 1540 -c 2 -i 19 -a 2 -x {1.0 3.1 6 ------- null}
h -t 0.51304 -s 1 -d 2 -p tcp -e 1540 -c 2 -i 19 -a 2 -x {1.0 3.1 -1 ------- null}
r -t 0.51688 -s 1 -d 2 -p tcp -e 1540 -c 2 -i 17 -a 2 -x {1.0 3.1 4 ------- null}
+ -t 0.51688 -s 2 -d 3 -p tcp -e 1540 -c 2 -i 17 -a 2 -x {1.0 3.1 4 ------- null}
r -t 0.52304 -s 1 -d 2 -p tcp -e 1540 -c 2 -i 18 -a 2 -x {1.0 3.1 5 ------- null}
+ -t 0.52304 -s 2 -d 3 -p tcp -e 1540 -c 2 -i 18 -a 2 -x {1.0 3.1 5 ------- null}
d -t 0.52304 -s 2 -d 3 -p tcp -e 1540 -c 2 -i 18 -a 2 -x {1.0 3.1 5 ------- null}
- -t 0.52304 -s 2 -d 3 -p tcp -e 1540 -c 1 -i 15 -a 1 -x {0.0 3.0 6 ------- null}
h -t 0.52304 -s 2 -d 3 -p tcp -e 1540 -c 1 -i 15 -a 1 -x {0.0 3.0 -1 ------- null}
r -t 0.5292 -s 1 -d 2 -p tcp -e 1540 -c 2 -i 19 -a 2 -x {1.0 3.1 6 ------- null}
+ -t 0.5292 -s 2 -d 3 -p tcp -e 1540 -c 2 -i 19 -a 2 -x {1.0 3.1 6 ------- null}
- -t 0.53536 -s 2 -d 3 -p tcp -e 1540 -c 2 -i 16 -a 2 -x {1.0 3.1 3 ------- null}
h -t 0.53536 -s 2 -d 3 -p tcp -e 1540 -c 2 -i 16 -a 2 -x {1.0 3.1 -1 ------- null}
r -t 0.5384 -s 2 -d 3 -p tcp -e 1540 -c 1 -i 12 -a 1 -x {0.0 3.0 3 ------- null}
+ -t 0.5384 -s 3 -d 2 -p ack -e 40 -c 1 -i 20 -a 1 -x {3.0 0.0 3 ------- null}
- -t 0.5384 -s 3 -d 2 -p ack -e 40 -c 1 -i 20 -a 1 -x {3.0 0.0 3 ------- null}
h -t 0.5384 -s 3 -d 2 -p ack -e 40 -c 1 -i 20 -a 1 -x {3.0 0.0 -1 ------- null}
- -t 0.54768 -s 2 -d 3 -p tcp -e 1540 -c 2 -i 17 -a 2 -x {1.0 3.1 4 ------- null}
h -t 0.54768 -s 2 -d 3 -p tcp -e 1540 -c 2 -i 17 -a 2 -x {1.0 3.1 -1 ------- null}
r -t 0.55072 -s 2 -d 3 -p tcp -e 1540 -c 1 -i 13 -a 1 -x {0.0 3.0 4 ------- null}
+ -t 0.55072 -s 3 -d 2 -p ack -e 40 -c 1 -i 21 -a 1 -x {3.0 0.0 4 ------- null}
- -t 0.55072 -s 3 -d 2 -p ack -e 40 -c 1 -i 21 -a 1 -x {3.0 0.0 4 ------- null}
h -t 0.55072 -s 3 -d 2 -p ack -e 40 -c 1 -i 21 -a 1 -x {3.0 0.0 -1 ------- null}
- -t 0.56 -s 2 -d 3 -p tcp -e 1540 -c 2 -i 19 -a 2 -x {1.0 3.1 6 ------- null}
h -t 0.56 -s 2 -d 3 -p tcp -e 1540 -c 2 -i 19 -a 2 -x {1.0 3.1 -1 ------- null}
r -t 0.56304 -s 2 -d 3 -p tcp -e 1540 -c 1 -i 14 -a 1 -x {0.0 3.0 5 ------- null}
+ -t 0.56304 -s 3 -d 2 -p ack -e 40 -c 1 -i 22 -a 1 -x {3.0 0.0 5 ------- null}
- -t 0.56304 -s 3 -d 2 -p ack -e 40 -c 1 -i 22 -a 1 -x {3.0 0.0 5 ------- null}
h -t 0.56304 -s 3 -d 2 -p ack -e 40 -c 1 -i 22 -a 1 -x {3.0 0.0 -1 ------- null}
r -t 0.57536 -s 2 -d 3 -p tcp -e 1540 -c 1 -i 15 -a 1 -x {0.0 3.0 6 ------- null}
+ -t 0.57536 -s 3 -d 2 -p ack -e 40 -c 1 -i 23 -a 1 -x {3.0 0.0 6 ------- null}
- -t 0.57536 -s 3 -d 2 -p ack -e 40 -c 1 -i 23 -a 1 -x {3.0 0.0 6 ------- null}
h -t 0.57536 -s 3 -d 2 -p ack -e 40 -c 1 -i 23 -a 1 -x {3.0 0.0 -1 ------- null}
r -t 0.57872 -s 3 -d 2 -p ack -e 40 -c 1 -i 20 -a 1 -x {3.0 0.0 3 ------- null}
+ -t 0.57872 -s 2 -d 0 -p ack -e 40 -c 1 -i 20 -a 1 -x {3.0 0.0 3 ------- null}
- -t 0.57872 -s 2 -d 0 -p ack -e 40 -c 1 -i 20 -a 1 -x {3.0 0.0 3 ------- null}
h -t 0.57872 -s 2 -d 0 -p ack -e 40 -c 1 -i 20 -a 1 -x {3.0 0.0 -1 ------- null}
r -t 0.58768 -s 2 -d 3 -p tcp -e 1540 -c 2 -i 16 -a 2 -x {1.0 3.1 3 ------- null}
+ -t 0.58768 -s 3 -d 2 -p ack -e 40 -c 2 -i 24 -a 2 -x {3.1 1.0 3 ------- null}
- -t 0.58768 -s 3 -d 2 -p ack -e 40 -c 2 -i 24 -a 2 -x {3.1 1.0 3 ------- null}
h -t 0.58768 -s 3 -d 2 -p ack -e 40 -c 2 -i 24 -a 2 -x {3.1 1.0 -1 ------- null}
r -t 0.58888 -s 2 -d 0 -p ack -e 40 -c 1 -i 20 -a 1 -x {3.0 0.0 3 ------- null}
+ -t 0.58888 -s 0 -d 2 -p tcp -e 1540 -c 1 -i 25 -a 1 -x {0.0 3.0 7 ------- null}
- -t 0.58888 -s 0 -d 2 -p tcp -e 1540 -c 1 -i 25 -a 1 -x {0.0 3.0 7 ------- null}
h -t 0.58888 -s 0 -d 2 -p tcp -e 1540 -c 1 -i 25 -a 1 -x {0.0 3.0 -1 ------- null}
+ -t 0.58888 -s 0 -d 2 -p tcp -e 1540 -c 1 -i 26 -a 1 -x {0.0 3.0 8 ------- null}
r -t 0.59104 -s 3 -d 2 -p ack -e 40 -c 1 -i 21 -a 1 -x {3.0 0.0 4 ------- null}
+ -t 0.59104 -s 2 -d 0 -p ack -e 40 -c 1 -i 21 -a 1 -x {3.0 0.0 4 ------- null}
- -t 0.59104 -s 2 -d 0 -p ack -e 40 -c 1 -i 21 -a 1 -x {3.0 0.0 4 ------- null}
h -t 0.59104 -s 2 -d 0 -p ack -e 40 -c 1 -i 21 -a 1 -x {3.0 0.0 -1 ------- null}
- -t 0.59504 -s 0 -d 2 -p tcp -e 1540 -c 1 -i 26 -a 1 -x {0.0 3.0 8 ------- null}
h -t 0.59504 -s 0 -d 2 -p tcp -e 1540 -c 1 -i 26 -a 1 -x {0.0 3.0 -1 ------- null}
r -t 0.6 -s 2 -d 3 -p tcp -e 1540 -c 2 -i 17 -a 2 -x {1.0 3.1 4 ------- null}
+ -t 0.6 -s 3 -d 2 -p ack -e 40 -c 2 -i 27 -a 2 -x {3.1 1.0 4 ------- null}
- -t 0.6 -s 3 -d 2 -p ack -e 40 -c 2 -i 27 -a 2 -x {3.1 1.0 4 ------- null}
h -t 0.6 -s 3 -d 2 -p ack -e 40 -c 2 -i 27 -a 2 -x {3.1 1.0 -1 ------- null}
r -t 0.6012 -s 2 -d 0 -p ack -e 40 -c 1 -i 21 -a 1 -x {3.0 0.0 4 ------- null}
+ -t 0.6012 -s 0 -d 2 -p tcp -e 1540 -c 1 -i 28 -a 1 -x {0.0 3.0 9 ------- null}
+ -t 0.6012 -s 0 -d 2 -p tcp -e 1540 -c 1 -i 29 -a 1 -x {0.0 3.0 10 ------- null}
- -t 0.6012 -s 0 -d 2 -p tcp -e 1540 -c 1 -i 28 -a 1 -x {0.0 3.0 9 ------- null}
h -t 0.6012 -s 0 -d 2 -p tcp -e 1540 -c 1 -i 28 -a 1 -x {0.0 3.0 -1 ------- null}
r -t 0.60336 -s 3 -d 2 -p ack -e 40 -c 1 -i 22 -a 1 -x {3.0 0.0 5 ------- null}
+ -t 0.60336 -s 2 -d 0 -p ack -e 40 -c 1 -i 22 -a 1 -x {3.0 0.0 5 ------- null}
- -t 0.60336 -s 2 -d 0 -p ack -e 40 -c 1 -i 22 -a 1 -x {3.0 0.0 5 ------- null}
h -t 0.60336 -s 2 -d 0 -p ack -e 40 -c 1 -i 22 -a 1 -x {3.0 0.0 -1 ------- null}
r -t 0.60504 -s 0 -d 2 -p tcp -e 1540 -c 1 -i 25 -a 1 -x {0.0 3.0 7 ------- null}
+ -t 0.60504 -s 2 -d 3 -p tcp -e 1540 -c 1 -i 25 -a 1 -x {0.0 3.0 7 ------- null}
- -t 0.60504 -s 2 -d 3 -p tcp -e 1540 -c 1 -i 25 -a 1 -x {0.0 3.0 7 ------- null}
h -t 0.60504 -s 2 -d 3 -p tcp -e 1540 -c 1 -i 25 -a 1 -x {0.0 3.0 -1 ------- null}
- -t 0.60736 -s 0 -d 2 -p tcp -e 1540 -c 1 -i 29 -a 1 -x {0.0 3.0 10 ------- null}
h -t 0.60736 -s 0 -d 2 -p tcp -e 1540 -c 1 -i 29 -a 1 -x {0.0 3.0 -1 ------- null}
r -t 0.6112 -s 0 -d 2 -p tcp -e 1540 -c 1 -i 26 -a 1 -x {0.0 3.0 8 ------- null}
+ -t 0.6112 -s 2 -d 3 -p tcp -e 1540 -c 1 -i 26 -a 1 -x {0.0 3.0 8 ------- null}
r -t 0.61232 -s 2 -d 3 -p tcp -e 1540 -c 2 -i 19 -a 2 -x {1.0 3.1 6 ------- null}
+ -t 0.61232 -s 3 -d 2 -p ack -e 40 -c 2 -i 30 -a 2 -x {3.1 1.0 4 ------- null}
- -t 0.61232 -s 3 -d 2 -p ack -e 40 -c 2 -i 30 -a 2 -x {3.1 1.0 4 ------- null}
h -t 0.61232 -s 3 -d 2 -p ack -e 40 -c 2 -i 30 -a 2 -x {3.1 1.0 -1 ------- null}
r -t 0.61352 -s 2 -d 0 -p ack -e 40 -c 1 -i 22 -a 1 -x {3.0 0.0 5 ------- null}
+ -t 0.61352 -s 0 -d 2 -p tcp -e 1540 -c 1 -i 31 -a 1 -x {0.0 3.0 11 ------- null}
+ -t 0.61352 -s 0 -d 2 -p tcp -e 1540 -c 1 -i 32 -a 1 -x {0.0 3.0 12 ------- null}
- -t 0.61352 -s 0 -d 2 -p tcp -e 1540 -c 1 -i 31 -a 1 -x {0.0 3.0 11 ------- null}
h -t 0.61352 -s 0 -d 2 -p tcp -e 1540 -c 1 -i 31 -a 1 -x {0.0 3.0 -1 ------- null}
r -t 0.61568 -s 3 -d 2 -p ack -e 40 -c 1 -i 23 -a 1 -x {3.0 0.0 6 ------- null}
+ -t 0.61568 -s 2 -d 0 -p ack -e 40 -c 1 -i 23 -a 1 -x {3.0 0.0 6 ------- null}
- -t 0.61568 -s 2 -d 0 -p ack -e 40 -c 1 -i 23 -a 1 -x {3.0 0.0 6 ------- null}
h -t 0.61568 -s 2 -d 0 -p ack -e 40 -c 1 -i 23 -a 1 -x {3.0 0.0 -1 ------- null}
- -t 0.61736 -s 2 -d 3 -p tcp -e 1540 -c 1 -i 26 -a 1 -x {0.0 3.0 8 ------- null}
h -t 0.61736 -s 2 -d 3 -p tcp -e 1540 -c 1 -i 26 -a 1 -x {0.0 3.0 -1 ------- null}
r -t 0.61736 -s 0 -d 2 -p tcp -e 1540 -c 1 -i 28 -a 1 -x {0.0 3.0 9 ------- null}
+ -t 0.61736 -s 2 -d 3 -p tcp -e 1540 -c 1 -i 28 -a 1 -x {0.0 3.0 9 ------- null}
- -t 0.61968 -s 0 -d 2 -p tcp -e 1540 -c 1 -i 32 -a 1 -x {0.0 3.0 12 ------- null}
h -t 0.61968 -s 0 -d 2 -p tcp -e 1540 -c 1 -i 32 -a 1 -x {0.0 3.0 -1 ------- null}
r -t 0.62352 -s 0 -d 2 -p tcp -e 1540 -c 1 -i 29 -a 1 -x {0.0 3.0 10 ------- null}
+ -t 0.62352 -s 2 -d 3 -p tcp -e 1540 -c 1 -i 29 -a 1 -x {0.0 3.0 10 ------- null}
r -t 0.62584 -s 2 -d 0 -p ack -e 40 -c 1 -i 23 -a 1 -x {3.0 0.0 6 ------- null}
+ -t 0.62584 -s 0 -d 2 -p tcp -e 1540 -c 1 -i 33 -a 1 -x {0.0 3.0 13 ------- null}
+ -t 0.62584 -s 0 -d 2 -p tcp -e 1540 -c 1 -i 34 -a 1 -x {0.0 3.0 14 ------- null}
- -t 0.62584 -s 0 -d 2 -p tcp -e 1540 -c 1 -i 33 -a 1 -x {0.0 3.0 13 ------- null}
h -t 0.62584 -s 0 -d 2 -p tcp -e 1540 -c 1 -i 33 -a 1 -x {0.0 3.0 -1 ------- null}
r -t 0.628 -s 3 -d 2 -p ack -e 40 -c 2 -i 24 -a 2 -x {3.1 1.0 3 ------- null}
+ -t 0.628 -s 2 -d 1 -p ack -e 40 -c 2 -i 24 -a 2 -x {3.1 1.0 3 ------- null}
- -t 0.628 -s 2 -d 1 -p ack -e 40 -c 2 -i 24 -a 2 -x {3.1 1.0 3 ------- null}
h -t 0.628 -s 2 -d 1 -p ack -e 40 -c 2 -i 24 -a 2 -x {3.1 1.0 -1 ------- null}
- -t 0.62968 -s 2 -d 3 -p tcp -e 1540 -c 1 -i 28 -a 1 -x {0.0 3.0 9 ------- null}
h -t 0.62968 -s 2 -d 3 -p tcp -e 1540 -c 1 -i 28 -a 1 -x {0.0 3.0 -1 ------- null}
r -t 0.62968 -s 0 -d 2 -p tcp -e 1540 -c 1 -i 31 -a 1 -x {0.0 3.0 11 ------- null}
+ -t 0.62968 -s 2 -d 3 -p tcp -e 1540 -c 1 -i 31 -a 1 -x {0.0 3.0 11 ------- null}
- -t 0.632 -s 0 -d 2 -p tcp -e 1540 -c 1 -i 34 -a 1 -x {0.0 3.0 14 ------- null}
h -t 0.632 -s 0 -d 2 -p tcp -e 1540 -c 1 -i 34 -a 1 -x {0.0 3.0 -1 ------- null}
r -t 0.63584 -s 0 -d 2 -p tcp -e 1540 -c 1 -i 32 -a 1 -x {0.0 3.0 12 ------- null}
+ -t 0.63584 -s 2 -d 3 -p tcp -e 1540 -c 1 -i 32 -a 1 -x {0.0 3.0 12 ------- null}
r -t 0.63816 -s 2 -d 1 -p ack -e 40 -c 2 -i 24 -a 2 -x {3.1 1.0 3 ------- null}
+ -t 0.63816 -s 1 -d 2 -p tcp -e 1540 -c 2 -i 35 -a 2 -x {1.0 3.1 7 ------- null}
- -t 0.63816 -s 1 -d 2 -p tcp -e 1540 -c 2 -i 35 -a 2 -x {1.0 3.1 7 ------- null}
h -t 0.63816 -s 1 -d 2 -p tcp -e 1540 -c 2 -i 35 -a 2 -x {1.0 3.1 -1 ------- null}
+ -t 0.63816 -s 1 -d 2 -p tcp -e 1540 -c 2 -i 36 -a 2 -x {1.0 3.1 8 ------- null}
r -t 0.64032 -s 3 -d 2 -p ack -e 40 -c 2 -i 27 -a 2 -x {3.1 1.0 4 ------- null}
+ -t 0.64032 -s 2 -d 1 -p ack -e 40 -c 2 -i 27 -a 2 -x {3.1 1.0 4 ------- null}
- -t 0.64032 -s 2 -d 1 -p ack -e 40 -c 2 -i 27 -a 2 -x {3.1 1.0 4 ------- null}
h -t 0.64032 -s 2 -d 1 -p ack -e 40 -c 2 -i 27 -a 2 -x {3.1 1.0 -1 ------- null}
- -t 0.642 -s 2 -d 3 -p tcp -e 1540 -c 1 -i 29 -a 1 -x {0.0 3.0 10 ------- null}
h -t 0.642 -s 2 -d 3 -p tcp -e 1540 -c 1 -i 29 -a 1 -x {0.0 3.0 -1 ------- null}
r -t 0.642 -s 0 -d 2 -p tcp -e 1540 -c 1 -i 33 -a 1 -x {0.0 3.0 13 ------- null}
+ -t 0.642 -s 2 -d 3 -p tcp -e 1540 -c 1 -i 33 -a 1 -x {0.0 3.0 13 ------- null}
- -t 0.64432 -s 1 -d 2 -p tcp -e 1540 -c 2 -i 36 -a 2 -x {1.0 3.1 8 ------- null}
h -t 0.64432 -s 1 -d 2 -p tcp -e 1540 -c 2 -i 36 -a 2 -x {1.0 3.1 -1 ------- null}
r -t 0.64816 -s 0 -d 2 -p tcp -e 1540 -c 1 -i 34 -a 1 -x {0.0 3.0 14 ------- null}
+ -t 0.64816 -s 2 -d 3 -p tcp -e 1540 -c 1 -i 34 -a 1 -x {0.0 3.0 14 ------- null}
d -t 0.64816 -s 2 -d 3 -p tcp -e 1540 -c 1 -i 34 -a 1 -x {0.0 3.0 14 ------- null}
r -t 0.65048 -s 2 -d 1 -p ack -e 40 -c 2 -i 27 -a 2 -x {3.1 1.0 4 ------- null}
+ -t 0.65048 -s 1 -d 2 -p tcp -e 1540 -c 2 -i 37 -a 2 -x {1.0 3.1 9 ------- null}
+ -t 0.65048 -s 1 -d 2 -p tcp -e 1540 -c 2 -i 38 -a 2 -x {1.0 3.1 10 ------- null}
- -t 0.65048 -s 1 -d 2 -p tcp -e 1540 -c 2 -i 37 -a 2 -x {1.0 3.1 9 ------- null}
h -t 0.65048 -s 1 -d 2 -p tcp -e 1540 -c 2 -i 37 -a 2 -x {1.0 3.1 -1 ------- null}
r -t 0.65264 -s 3 -d 2 -p ack -e 40 -c 2 -i 30 -a 2 -x {3.1 1.0 4 ------- null}
+ -t 0.65264 -s 2 -d 1 -p ack -e 40 -c 2 -i 30 -a 2 -x {3.1 1.0 4 ------- null}
- -t 0.65264 -s 2 -d 1 -p ack -e 40 -c 2 -i 30 -a 2 -x {3.1 1.0 4 ------- null}
h -t 0.65264 -s 2 -d 1 -p ack -e 40 -c 2 -i 30 -a 2 -x {3.1 1.0 -1 ------- null}
r -t 0.65432 -s 1 -d 2 -p tcp -e 1540 -c 2 -i 35 -a 2 -x {1.0 3.1 7 ------- null}
+ -t 0.65432 -s 2 -d 3 -p tcp -e 1540 -c 2 -i 35 -a 2 -x {1.0 3.1 7 ------- null}
d -t 0.65432 -s 2 -d 3 -p tcp -e 1540 -c 2 -i 35 -a 2 -x {1.0 3.1 7 ------- null}
- -t 0.65432 -s 2 -d 3 -p tcp -e 1540 -c 1 -i 31 -a 1 -x {0.0 3.0 11 ------- null}
h -t 0.65432 -s 2 -d 3 -p tcp -e 1540 -c 1 -i 31 -a 1 -x {0.0 3.0 -1 ------- null}
- -t 0.65664 -s 1 -d 2 -p tcp -e 1540 -c 2 -i 38 -a 2 -x {1.0 3.1 10 ------- null}
h -t 0.65664 -s 1 -d 2 -p tcp -e 1540 -c 2 -i 38 -a 2 -x {1.0 3.1 -1 ------- null}
r -t 0.65736 -s 2 -d 3 -p tcp -e 1540 -c 1 -i 25 -a 1 -x {0.0 3.0 7 ------- null}
+ -t 0.65736 -s 3 -d 2 -p ack -e 40 -c 1 -i 39 -a 1 -x {3.0 0.0 7 ------- null}
- -t 0.65736 -s 3 -d 2 -p ack -e 40 -c 1 -i 39 -a 1 -x {3.0 0.0 7 ------- null}
h -t 0.65736 -s 3 -d 2 -p ack -e 40 -c 1 -i 39 -a 1 -x {3.0 0.0 -1 ------- null}
r -t 0.66048 -s 1 -d 2 -p tcp -e 1540 -c 2 -i 36 -a 2 -x {1.0 3.1 8 ------- null}
+ -t 0.66048 -s 2 -d 3 -p tcp -e 1540 -c 2 -i 36 -a 2 -x {1.0 3.1 8 ------- null}
r -t 0.6628 -s 2 -d 1 -p ack -e 40 -c 2 -i 30 -a 2 -x {3.1 1.0 4 ------- null}
+ -t 0.6628 -s 1 -d 2 -p tcp -e 1540 -c 2 -i 40 -a 2 -x {1.0 3.1 11 ------- null}
- -t 0.6628 -s 1 -d 2 -p tcp -e 1540 -c 2 -i 40 -a 2 -x {1.0 3.1 11 ------- null}
h -t 0.6628 -s 1 -d 2 -p tcp -e 1540 -c 2 -i 40 -a 2 -x {1.0 3.1 -1 ------- null}
- -t 0.66664 -s 2 -d 3 -p tcp -e 1540 -c 1 -i 32 -a 1 -x {0.0 3.0 12 ------- null}
h -t 0.66664 -s 2 -d 3 -p tcp -e 1540 -c 1 -i 32 -a 1 -x {0.0 3.0 -1 ------- null}
r -t 0.66664 -s 1 -d 2 -p tcp -e 1540 -c 2 -i 37 -a 2 -x {1.0 3.1 9 ------- null}
+ -t 0.66664 -s 2 -d 3 -p tcp -e 1540 -c 2 -i 37 -a 2 -x {1.0 3.1 9 ------- null}
r -t 0.66968 -s 2 -d 3 -p tcp -e 1540 -c 1 -i 26 -a 1 -x {0.0 3.0 8 ------- null}
+ -t 0.66968 -s 3 -d 2 -p ack -e 40 -c 1 -i 41 -a 1 -x {3.0 0.0 8 ------- null}
- -t 0.66968 -s 3 -d 2 -p ack -e 40 -c 1 -i 41 -a 1 -x {3.0 0.0 8 ------- null}
h -t 0.66968 -s 3 -d 2 -p ack -e 40 -c 1 -i 41 -a 1 -x {3.0 0.0 -1 ------- null}
r -t 0.6728 -s 1 -d 2 -p tcp -e 1540 -c 2 -i 38 -a 2 -x {1.0 3.1 10 ------- null}
+ -t 0.6728 -s 2 -d 3 -p tcp -e 1540 -c 2 -i 38 -a 2 -x {1.0 3.1 10 ------- null}
d -t 0.6728 -s 2 -d 3 -p tcp -e 1540 -c 2 -i 38 -a 2 -x {1.0 3.1 10 ------- null}
- -t 0.67896 -s 2 -d 3 -p tcp -e 1540 -c 1 -i 33 -a 1 -x {0.0 3.0 13 ------- null}
h -t 0.67896 -s 2 -d 3 -p tcp -e 1540 -c 1 -i 33 -a 1 -x {0.0 3.0 -1 ------- null}
r -t 0.67896 -s 1 -d 2 -p tcp -e 1540 -c 2 -i 40 -a 2 -x {1.0 3.1 11 ------- null}
+ -t 0.67896 -s 2 -d 3 -p tcp -e 1540 -c 2 -i 40 -a 2 -x {1.0 3.1 11 ------- null}
r -t 0.682 -s 2 -d 3 -p tcp -e 1540 -c 1 -i 28 -a 1 -x {0.0 3.0 9 ------- null}
+ -t 0.682 -s 3 -d 2 -p ack -e 40 -c 1 -i 42 -a 1 -x {3.0 0.0 9 ------- null}
- -t 0.682 -s 3 -d 2 -p ack -e 40 -c 1 -i 42 -a 1 -x {3.0 0.0 9 ------- null}
h -t 0.682 -s 3 -d 2 -p ack -e 40 -c 1 -i 42 -a 1 -x {3.0 0.0 -1 ------- null}
- -t 0.69128 -s 2 -d 3 -p tcp -e 1540 -c 2 -i 36 -a 2 -x {1.0 3.1 8 ------- null}
h -t 0.69128 -s 2 -d 3 -p tcp -e 1540 -c 2 -i 36 -a 2 -x {1.0 3.1 -1 ------- null}
r -t 0.69432 -s 2 -d 3 -p tcp -e 1540 -c 1 -i 29 -a 1 -x {0.0 3.0 10 ------- null}
+ -t 0.69432 -s 3 -d 2 -p ack -e 40 -c 1 -i 43 -a 1 -x {3.0 0.0 10 ------- null}
- -t 0.69432 -s 3 -d 2 -p ack -e 40 -c 1 -i 43 -a 1 -x {3.0 0.0 10 ------- null}
h -t 0.69432 -s 3 -d 2 -p ack -e 40 -c 1 -i 43 -a 1 -x {3.0 0.0 -1 ------- null}
r -t 0.69768 -s 3 -d 2 -p ack -e 40 -c 1 -i 39 -a 1 -x {3.0 0.0 7 ------- null}
+ -t 0.69768 -s 2 -d 0 -p ack -e 40 -c 1 -i 39 -a 1 -x {3.0 0.0 7 ------- null}
- -t 0.69768 -s 2 -d 0 -p ack -e 40 -c 1 -i 39 -a 1 -x {3.0 0.0 7 ------- null}
h -t 0.69768 -s 2 -d 0 -p ack -e 40 -c 1 -i 39 -a 1 -x {3.0 0.0 -1 ------- null}
- -t 0.7036 -s 2 -d 3 -p tcp -e 1540 -c 2 -i 37 -a 2 -x {1.0 3.1 9 ------- null}
h -t 0.7036 -s 2 -d 3 -p tcp -e 1540 -c 2 -i 37 -a 2 -x {1.0 3.1 -1 ------- null}
r -t 0.70664 -s 2 -d 3 -p tcp -e 1540 -c 1 -i 31 -a 1 -x {0.0 3.0 11 ------- null}
+ -t 0.70664 -s 3 -d 2 -p ack -e 40 -c 1 -i 44 -a 1 -x {3.0 0.0 11 ------- null}
- -t 0.70664 -s 3 -d 2 -p ack -e 40 -c 1 -i 44 -a 1 -x {3.0 0.0 11 ------- null}
h -t 0.70664 -s 3 -d 2 -p ack -e 40 -c 1 -i 44 -a 1 -x {3.0 0.0 -1 ------- null}
r -t 0.70784 -s 2 -d 0 -p ack -e 40 -c 1 -i 39 -a 1 -x {3.0 0.0 7 ------- null}
+ -t 0.70784 -s 0 -d 2 -p tcp -e 1540 -c 1 -i 45 -a 1 -x {0.0 3.0 15 ------- null}
- -t 0.70784 -s 0 -d 2 -p tcp -e 1540 -c 1 -i 45 -a 1 -x {0.0 3.0 15 ------- null}
h -t 0.70784 -s 0 -d 2 -p tcp -e 1540 -c 1 -i 45 -a 1 -x {0.0 3.0 -1 ------- null}
+ -t 0.70784 -s 0 -d 2 -p tcp -e 1540 -c 1 -i 46 -a 1 -x {0.0 3.0 16 ------- null}
r -t 0.71 -s 3 -d 2 -p ack -e 40 -c 1 -i 41 -a 1 -x {3.0 0.0 8 ------- null}
+ -t 0.71 -s 2 -d 0 -p ack -e 40 -c 1 -i 41 -a 1 -x {3.0 0.0 8 ------- null}
- -t 0.71 -s 2 -d 0 -p ack -e 40 -c 1 -i 41 -a 1 -x {3.0 0.0 8 ------- null}
h -t 0.71 -s 2 -d 0 -p ack -e 40 -c 1 -i 41 -a 1 -x {3.0 0.0 -1 ------- null}
- -t 0.714 -s 0 -d 2 -p tcp -e 1540 -c 1 -i 46 -a 1 -x {0.0 3.0 16 ------- null}
h -t 0.714 -s 0 -d 2 -p tcp -e 1540 -c 1 -i 46 -a 1 -x {0.0 3.0 -1 ------- null}
- -t 0.71592 -s 2 -d 3 -p tcp -e 1540 -c 2 -i 40 -a 2 -x {1.0 3.1 11 ------- null}
h -t 0.71592 -s 2 -d 3 -p tcp -e 1540 -c 2 -i 40 -a 2 -x {1.0 3.1 -1 ------- null}
r -t 0.71896 -s 2 -d 3 -p tcp -e 1540 -c 1 -i 32 -a 1 -x {0.0 3.0 12 ------- null}
+ -t 0.71896 -s 3 -d 2 -p ack -e 40 -c 1 -i 47 -a 1 -x {3.0 0.0 12 ------- null}
- -t 0.71896 -s 3 -d 2 -p ack -e 40 -c 1 -i 47 -a 1 -x {3.0 0.0 12 ------- null}
h -t 0.71896 -s 3 -d 2 -p ack -e 40 -c 1 -i 47 -a 1 -x {3.0 0.0 -1 ------- null}
r -t 0.72016 -s 2 -d 0 -p ack -e 40 -c 1 -i 41 -a 1 -x {3.0 0.0 8 ------- null}
+ -t 0.72016 -s 0 -d 2 -p tcp -e 1540 -c 1 -i 48 -a 1 -x {0.0 3.0 17 ------- null}
+ -t 0.72016 -s 0 -d 2 -p tcp -e 1540 -c 1 -i 49 -a 1 -x {0.0 3.0 18 ------- null}
- -t 0.72016 -s 0 -d 2 -p tcp -e 1540 -c 1 -i 48 -a 1 -x {0.0 3.0 17 ------- null}
h -t 0.72016 -s 0 -d 2 -p tcp -e 1540 -c 1 -i 48 -a 1 -x {0.0 3.0 -1 ------- null}
r -t 0.72232 -s 3 -d 2 -p ack -e 40 -c 1 -i 42 -a 1 -x {3.0 0.0 9 ------- null}
+ -t 0.72232 -s 2 -d 0 -p ack -e 40 -c 1 -i 42 -a 1 -x {3.0 0.0 9 ------- null}
- -t 0.72232 -s 2 -d 0 -p ack -e 40 -c 1 -i 42 -a 1 -x {3.0 0.0 9 ------- null}
h -t 0.72232 -s 2 -d 0 -p ack -e 40 -c 1 -i 42 -a 1 -x {3.0 0.0 -1 ------- null}
r -t 0.724 -s 0 -d 2 -p tcp -e 1540 -c 1 -i 45 -a 1 -x {0.0 3.0 15 ------- null}
+ -t 0.724 -s 2 -d 3 -p tcp -e 1540 -c 1 -i 45 -a 1 -x {0.0 3.0 15 ------- null}
- -t 0.72632 -s 0 -d 2 -p tcp -e 1540 -c 1 -i 49 -a 1 -x {0.0 3.0 18 ------- null}
h -t 0.72632 -s 0 -d 2 -p tcp -e 1540 -c 1 -i 49 -a 1 -x {0.0 3.0 -1 ------- null}
- -t 0.72824 -s 2 -d 3 -p tcp -e 1540 -c 1 -i 45 -a 1 -x {0.0 3.0 15 ------- null}
h -t 0.72824 -s 2 -d 3 -p tcp -e 1540 -c 1 -i 45 -a 1 -x {0.0 3.0 -1 ------- null}
r -t 0.73016 -s 0 -d 2 -p tcp -e 1540 -c 1 -i 46 -a 1 -x {0.0 3.0 16 ------- null}
+ -t 0.73016 -s 2 -d 3 -p tcp -e 1540 -c 1 -i 46 -a 1 -x {0.0 3.0 16 ------- null}
r -t 0.73128 -s 2 -d 3 -p tcp -e 1540 -c 1 -i 33 -a 1 -x {0.0 3.0 13 ------- null}
+ -t 0.73128 -s 3 -d 2 -p ack -e 40 -c 1 -i 50 -a 1 -x {3.0 0.0 13 ------- null}
- -t 0.73128 -s 3 -d 2 -p ack -e 40 -c 1 -i 50 -a 1 -x {3.0 0.0 13 ------- null}
h -t 0.73128 -s 3 -d 2 -p ack -e 40 -c 1 -i 50 -a 1 -x {3.0 0.0 -1 ------- null}