V -t * -v 1.0a5 -a 0
A -t * -n 1 -p 0 -o 0xffffffff -c 31 -a 1
A -t * -h 1 -m 2147483647 -s 0
c -t * -i 4 -n yellow
c -t * -i 1 -n blue
c -t * -i 2 -n red
c -t * -i 3 -n green
n -t * -a 0 -s 0 -S UP -v circle -c black -i black
n -t * -a 1 -s 1 -S UP -v circle -c black -i black
n -t * -a 2 -s 2 -S UP -v circle -c black -i black
n -t * -a 3 -s 3 -S UP -v circle -c black -i black
l -t * -s 0 -d 2 -S UP -r 2000000 -D 0.01 -c black -o right-down
l -t * -s 1 -d 2 -S UP -r 2000000 -D 0.01 -c black -o right-up
l -t * -s 2 -d 3 -S UP -r 1000000 -D 0.01 -c black -o right
q -t * -s 3 -d 2 -a 0.5
q -t * -s 2 -d 3 -a 0.5
+ -t 0.25 -s 0 -d 2 -p tcp -e 40 -c 1 -i 0 -a 1 -x {0.0 3.0 0 ------- null}
- -t 0.25 -s 0 -d 2 -p tcp -e 40 -c 1 -i 0 -a 1 -x {0.0 3.0 0 ------- null}
h -t 0.25 -s 0 -d 2 -p tcp -e 40 -c 1 -i 0 -a 1 -x {0.0 3.0 -1 ------- null}
+ -t 0.25 -s 1 -d 2 -p cbr -e 1000 -c 2 -i 1 -a 2 -x {1.0 3.1 0 ------- null}
- -t 0.25 -s 1 -d 2 -p cbr -e 1000 -c 2 -i 1 -a 2 -x {1.0 3.1 0 ------- null}
h -t 0.25 -s 1 -d 2 -p cbr -e 1000 -c 2 -i 1 -a 2 -x {1.0 3.1 -1 ------- null}
+ -t 0.25 -s 1 -d 2 -p cbr -e 500 -c 2 -i 2 -a 2 -x {1.0 3.1 1 ------- null}
- -t 0.254 -s 1 -d 2 -p cbr -e 500 -c 2 -i 2 -a 2 -x {1.0 3.1 1 ------- null}
h -t 0.254 -s 1 -d 2 -p cbr -e 500 -c 2 -i 2 -a 2 -x {1.0 3.1 -1 ------- null}
r -t 0.26016 -s 0 -d 2 -p tcp -e 40 -c 1 -i 0 -a 1 -x {0.0 3.0 0 ------- null}
+ -t 0.26016 -s 2 -d 3 -p tcp -e 40 -c 1 -i 0 -a 1 -x {0.0 3.0 0 ------- null}
- -t 0.26016 -s 2 -d 3 -p tcp -e 40 -c 1 -i 0 -a 1 -x {0.0 3.0 0 ------- null}
h -t 0.26016 -s 2 -d 3 -p tcp -e 40 -c 1 -i 0 -a 1 -x {0.0 3.0 -1 ------- null}
r -t 0.264 -s 1 -d 2 -p cbr -e 1000 -c 2 -i 1 -a 2 -x {1.0 3.1 0 ------- null}
+ -t 0.264 -s 2 -d 3 -p cbr -e 1000 -c 2 -i 1 -a 2 -x {1.0 3.1 0 ------- null}
- -t 0.264 -s 2 -d 3 -p cbr -e 1000 -c 2 -i 1 -a 2 -x {1.0 3.1 0 ------- null}
h -t 0.264 -s 2 -d 3 -p cbr -e 1000 -c 2 -i 1 -a 2 -x {1.0 3.1 -1 ------- null}
r -t 0.266 -s 1 -d 2 -p cbr -e 500 -c 2 -i 2 -a 2 -x {1.0 3.1 1 ------- null}
+ -t 0.266 -s 2 -d 3 -p cbr -e 500 -c 2 -i 2 -a 2 -x {1.0 3.1 1 ------- null}
r -t 0.27048 -s 2 -d 3 -p tcp -e 40 -c 1 -i 0 -a 1 -x {0.0 3.0 0 ------- null}
+ -t 0.27048 -s 3 -d 2 -p ack -e 40 -c 1 -i 3 -a 1 -x {3.0 0.0 0 ------- null}
- -t 0.27048 -s 3 -d 2 -p ack -e 40 -c 1 -i 3 -a 1 -x {3.0 0.0 0 ------- null}
h -t 0.27048 -s 3 -d 2 -p ack -e 40 -c 1 -i 3 -a 1 -x {3.0 0.0 -1 ------- null}
- -t 0.272 -s 2 -d 3 -p cbr -e 500 -c 2 -i 2 -a 2 -x {1.0 3.1 1 ------- null}
h -t 0.272 -s 2 -d 3 -p cbr -e 500 -c 2 -i 2 -a 2 -x {1.0 3.1 -1 ------- null}
r -t 0.2808 -s 3 -d 2 -p ack -e 40 -c 1 -i 3 -a 1 -x {3.0 0.0 0 ------- null}
+ -t 0.2808 -s 2 -d 0 -p ack -e 40 -c 1 -i 3 -a 1 -x {3.0 0.0 0 ------- null}
- -t 0.2808 -s 2 -d 0 -p ack -e 40 -c 1 -i 3 -a 1 -x {3.0 0.0 0 ------- null}
h -t 0.2808 -s 2 -d 0 -p ack -e 40 -c 1 -i 3 -a 1 -x {3.0 0.0 -1 ------- null}
r -t 0.282 -s 2 -d 3 -p cbr -e 1000 -c 2 -i 1 -a 2 -x {1.0 3.1 0 ------- null}
r -t 0.286 -s 2 -d 3 -p cbr -e 500 -c 2 -i 2 -a 2 -x {1.0 3.1 1 ------- null}
r -t 0.29096 -s 2 -d 0 -p ack -e 40 -c 1 -i 3 -a 1 -x {3.0 0.0 0 ------- null}
+ -t 0.29096 -s 0 -d 2 -p tcp -e 1540 -c 1 -i 4 -a 1 -x {0.0 3.0 1 ------- null}
- -t 0.29096 -s 0 -d 2 -p tcp -e 1540 -c 1 -i 4 -a 1 -x {0.0 3.0 1 ------- null}
h -t 0.29096 -s 0 -d 2 -p tcp -e 1540 -c 1 -i 4 -a 1 -x {0.0 3.0 -1 ------- null}
+ -t 0.29096 -s 0 -d 2 -p tcp -e 1540 -c 1 -i 5 -a 1 -x {0.0 3.0 2 ------- null}
- -t 0.29712 -s 0 -d 2 -p tcp -e 1540 -c 1 -i 5 -a 1 -x {0.0 3.0 2 ------- null}
h -t 0.29712 -s 0 -d 2 -p tcp -e 1540 -c 1 -i 5 -a 1 -x {0.0 3.0 -1 ------- null}
r -t 0.30712 -s 0 -d 2 -p tcp -e 1540 -c 1 -i 4 -a 1 -x {0.0 3.0 1 ------- null}
+ -t 0.30712 -s 2 -d 3 -p tcp -e 1540 -c 1 -i 4 -a 1 -x {0.0 3.0 1 ------- null}
- -t 0.30712 -s 2 -d 3 -p tcp -e 1540 -c 1 -i 4 -a 1 -x {0.0 3.0 1 ------- null}
h -t 0.30712 -s 2 -d 3 -p tcp -e 1540 -c 1 -i 4 -a 1 -x {0.0 3.0 -1 ------- null}
+ -t 0.31 -s 1 -d 2 -p cbr -e 1000 -c 2 -i 6 -a 2 -x {1.0 3.1 2 ------- null}
- -t 0.31 -s 1 -d 2 -p cbr -e 1000 -c 2 -i 6 -a 2 -x {1.0 3.1 2 ------- null}
h -t 0.31 -s 1 -d 2 -p cbr -e 1000 -c 2 -i 6 -a 2 -x {1.0 3.1 -1 ------- null}
+ -t 0.31 -s 1 -d 2 -p cbr -e 500 -c 2 -i 7 -a 2 -x {1.0 3.1 3 ------- null}
r -t 0.31328 -s 0 -d 2 -p tcp -e 1540 -c 1 -i 5 -a 1 -x {0.0 3.0 2 ------- null}
+ -t 0.31328 -s 2 -d 3 -p tcp -e 1540 -c 1 -i 5 -a 1 -x {0.0 3.0 2 ------- null}
- -t 0.314 -s 1 -d 2 -p cbr -e 500 -c 2 -i 7 -a 2 -x {1.0 3.1 3 ------- null}
h -t 0.314 -s 1 -d 2 -p cbr -e 500 -c 2 -i 7 -a 2 -x {1.0 3.1 -1 ------- null}
- -t 0.31944 -s 2 -d 3 -p tcp -e 1540 -c 1 -i 5 -a 1 -x {0.0 3.0 2 ------- null}
h -t 0.31944 -s 2 -d 3 -p tcp -e 1540 -c 1 -i 5 -a 1 -x {0.0 3.0 -1 ------- null}
r -t 0.324 -s 1 -d 2 -p cbr -e 1000 -c 2 -i 6 -a 2 -x {1.0 3.1 2 ------- null}
+ -t 0.324 -s 2 -d 3 -p cbr -e 1000 -c 2 -i 6 -a 2 -x {1.0 3.1 2 ------- null}
r -t 0.326 -s 1 -d 2 -p cbr -e 500 -c 2 -i 7 -a 2 -x {1.0 3.1 3 ------- null}
+ -t 0.326 -s 2 -d 3 -p cbr -e 500 -c 2 -i 7 -a 2 -x {1.0 3.1 3 ------- null}
r -t 0.32944 -s 2 -d 3 -p tcp -e 1540 -c 1 -i 4 -a 1 -x {0.0 3.0 1 ------- null}
+ -t 0.32944 -s 3 -d 2 -p ack -e 40 -c 1 -i 8 -a 1 -x {3.0 0.0 1 ------- null}
- -t 0.32944 -s 3 -d 2 -p ack -e 40 -c 1 -i 8 -a 1 -x {3.0 0.0 1 ------- null}
h -t 0.32944 -s 3 -d 2 -p ack -e 40 -c 1 -i 8 -a 1 -x {3.0 0.0 -1 ------- null}
- -t 0.33176 -s 2 -d 3 -p cbr -e 1000 -c 2 -i 6 -a 2 -x {1.0 3.1 2 ------- null}
h -t 0.33176 -s 2 -d 3 -p cbr -e 1000 -c 2 -i 6 -a 2 -x {1.0 3.1 -1 ------- null}
r -t 0.33976 -s 3 -d 2 -p ack -e 40 -c 1 -i 8 -a 1 -x {3.0 0.0 1 ------- null}
+ -t 0.33976 -s 2 -d 0 -p ack -e 40 -c 1 -i 8 -a 1 -x {3.0 0.0 1 ------- null}
- -t 0.33976 -s 2 -d 0 -p ack -e 40 -c 1 -i 8 -a 1 -x {3.0 0.0 1 ------- null}
h -t 0.33976 -s 2 -d 0 -p ack -e 40 -c 1 -i 8 -a 1 -x {3.0 0.0 -1 ------- null}
- -t 0.33976 -s 2 -d 3 -p cbr -e 500 -c 2 -i 7 -a 2 -x {1.0 3.1 3 ------- null}
h -t 0.33976 -s 2 -d 3 -p cbr -e 500 -c 2 -i 7 -a 2 -x {1.0 3.1 -1 ------- null}
r -t 0.34176 -s 2 -d 3 -p tcp -e 1540 -c 1 -i 5 -a 1 -x {0.0 3.0 2 ------- null}
+ -t 0.34176 -s 3 -d 2 -p ack -e 40 -c 1 -i 9 -a 1 -x {3.0 0.0 2 ------- null}
- -t 0.34176 -s 3 -d 2 -p ack -e 40 -c 1 -i 9 -a 1 -x {3.0 0.0 2 ------- null}
h -t 0.34176 -s 3 -d 2 -p ack -e 40 -c 1 -i 9 -a 1 -x {3.0 0.0 -1 ------- null}
r -t 0.34976 -s 2 -d 3 -p cbr -e 1000 -c 2 -i 6 -a 2 -x {1.0 3.1 2 ------- null}
r -t 0.34992 -s 2 -d 0 -p ack -e 40 -c 1 -i 8 -a 1 -x {3.0 0.0 1 ------- null}
+ -t 0.34992 -s 0 -d 2 -p tcp -e 1540 -c 1 -i 10 -a 1 -x {0.0 3.0 3 ------- null}
- -t 0.34992 -s 0 -d 2 -p tcp -e 1540 -c 1 -i 10 -a 1 -x {0.0 3.0 3 ------- null}
h -t 0.34992 -s 0 -d 2 -p tcp -e 1540 -c 1 -i 10 -a 1 -x {0.0 3.0 -1 ------- null}
+ -t 0.34992 -s 0 -d 2 -p tcp -e 1540 -c 1 -i 11 -a 1 -x {0.0 3.0 4 ------- null}
r -t 0.35208 -s 3 -d 2 -p ack -e 40 -c 1 -i 9 -a 1 -x {3.0 0.0 2 ------- null}
+ -t 0.35208 -s 2 -d 0 -p ack -e 40 -c 1 -i 9 -a 1 -x {3.0 0.0 2 ------- null}
- -t 0.35208 -s 2 -d 0 -p ack -e 40 -c 1 -i 9 -a 1 -x {3.0 0.0 2 ------- null}
h -t 0.35208 -s 2 -d 0 -p ack -e 40 -c 1 -i 9 -a 1 -x {3.0 0.0 -1 ------- null}
r -t 0.35376 -s 2 -d 3 -p cbr -e 500 -c 2 -i 7 -a 2 -x {1.0 3.1 3 ------- null}
- -t 0.35608 -s 0 -d 2 -p tcp -e 1540 -c 1 -i 11 -a 1 -x {0.0 3.0 4 ------- null}
h -t 0.35608 -s 0 -d 2 -p tcp -e 1540 -c 1 -i 11 -a 1 -x {0.0 3.0 -1 ------- null}
r -t 0.36224 -s 2 -d 0 -p ack -e 40 -c 1 -i 9 -a 1 -x {3.0 0.0 2 ------- null}
+ -t 0.36224 -s 0 -d 2 -p tcp -e 1540 -c 1 -i 12 -a 1 -x {0.0 3.0 5 ------- null}
+ -t 0.36224 -s 0 -d 2 -p tcp -e 1540 -c 1 -i 13 -a 1 -x {0.0 3.0 6 ------- null}
- -t 0.36224 -s 0 -d 2 -p tcp -e 1540 -c 1 -i 12 -a 1 -x {0.0 3.0 5 ------- null}
h -t 0.36224 -s 0 -d 2 -p tcp -e 1540 -c 1 -i 12 -a 1 -x {0.0 3.0 -1 ------- null}
r -t 0.36608 -s 0 -d 2 -p tcp -e 1540 -c 1 -i 10 -a 1 -x {0.0 3.0 3 ------- null}
+ -t 0.36608 -s 2 -d 3 -p tcp -e 1540 -c 1 -i 10 -a 1 -x {0.0 3.0 3 ------- null}
- -t 0.36608 -s 2 -d 3 -p tcp -e 1540 -c 1 -i 10 -a 1 -x {0.0 3.0 3 ------- null}
h -t 0.36608 -s 2 -d 3 -p tcp -e 1540 -c 1 -i 10 -a 1 -x {0.0 3.0 -1 ------- null}
- -t 0.3684 -s 0 -d 2 -p tcp -e 1540 -c 1 -i 13 -a 1 -x {0.0 3.0 6 ------- null}
h -t 0.3684 -s 0 -d 2 -p tcp -e 1540 -c 1 -i 13 -a 1 -x {0.0 3.0 -1 ------- null}
+ -t 0.37 -s 1 -d 2 -p cbr -e 1000 -c 2 -i 14 -a 2 -x {1.0 3.1 4 ------- null}
- -t 0.37 -s 1 -d 2 -p cbr -e 1000 -c 2 -i 14 -a 2 -x {1.0 3.1 4 ------- null}
h -t 0.37 -s 1 -d 2 -p cbr -e 1000 -c 2 -i 14 -a 2 -x {1.0 3.1 -1 ------- null}
+ -t 0.37 -s 1 -d 2 -p cbr -e 500 -c 2 -i 15 -a 2 -x {1.0 3.1 5 ------- null}
r -t 0.37224 -s 0 -d 2 -p tcp -e 1540 -c 1 -i 11 -a 1 -x {0.0 3.0 4 ------- null}
+ -t 0.37224 -s 2 -d 3 -p tcp -e 1540 -c 1 -i 11 -a 1 -x {0.0 3.0 4 ------- null}
- -t 0.374 -s 1 -d 2 -p cbr -e 500 -c 2 -i 15 -a 2 -x {1.0 3.1 5 ------- null}
h -t 0.374 -s 1 -d 2 -p cbr -e 500 -c 2 -i 15 -a 2 -x {1.0 3.1 -1 ------- null}
r -t 0.3784 -s 0 -d 2 -p tcp -e 1540 -c 1 -i 12 -a 1 -x {0.0 3.0 5 ------- null}
+ -t 0.3784 -s 2 -d 3 -p tcp -e 1540 -c 1 -i 12 -a 1 -x {0.0 3.0 5 ------- null}
- -t 0.3784 -s 2 -d 3 -p tcp -e 1540 -c 1 -i 11 -a 1 -x {0.0 3.0 4 ------- null}
h -t 0.3784 -s 2 -d 3 -p tcp -e 1540 -c 1 -i 11 -a 1 -x {0.0 3.0 -1 ------- null}
r -t 0.384 -s 1 -d 2 -p cbr -e 1000 -c 2 -i 14 -a 2 -x {1.0 3.1 4 ------- null}
+ -t 0.384 -s 2 -d 3 -p cbr -e 1000 -c 2 -i 14 -a 2 -x {1.0 3.1 4 ------- null}
r -t 0.38456 -s 0 -d 2 -p tcp -e 1540 -c 1 -i 13 -a 1 -x {0.0 3.0 6 ------- null}
+ -t 0.38456 -s 2 -d 3 -p tcp -e 1540 -c 1 -i 13 -a 1 -x {0.0 3.0 6 ------- null}
r -t 0.386 -s 1 -d 2 -p cbr -e 500 -c 2 -i 15 -a 2 -x {1.0 3.1 5 ------- null}
+ -t 0.386 -s 2 -d 3 -p cbr -e 500 -c 2 -i 15 -a 2 -x {1.0 3.1 5 ------- null}
d -t 0.386 -s 2 -d 3 -p cbr -e 500 -c 2 -i 15 -a 2 -x {1.0 3.1 5 ------- null}
r -t 0.3884 -s 2 -d 3 -p tcp -e 1540 -c 1 -i 10 -a 1 -x {0.0 3.0 3 ------- null}
+ -t 0.3884 -s 3 -d 2 -p ack -e 40 -c 1 -i 16 -a 1 -x {3.0 0.0 3 ------- null}
- -t 0.3884 -s 3 -d 2 -p ack -e 40 -c 1 -i 16 -a 1 -x {3.0 0.0 3 ------- null}
h -t 0.3884 -s 3 -d 2 -p ack -e 40 -c 1 -i 16 -a 1 -x {3.0 0.0 -1 ------- null}
- -t 0.39072 -s 2 -d 3 -p tcp -e 1540 -c 1 -i 12 -a 1 -x {0.0 3.0 5 ------- null}
h -t 0.39072 -s 2 -d 3 -p tcp -e 1540 -c 1 -i 12 -a 1 -x {0.0 3.0 -1 ------- null}
r -t 0.39872 -s 3 -d 2 -p ack -e 40 -c 1 -i 16 -a 1 -x {3.0 0.0 3 ------- null}
+ -t 0.39872 -s 2 -d 0 -p ack -e 40 -c 1 -i 16 -a 1 -x {3.0 0.0 3 ------- null}
- -t 0.39872 -s 2 -d 0 -p ack -e 40 -c 1 -i 16 -a 1 -x {3.0 0.0 3 ------- null}
h -t 0.39872 -s 2 -d 0 -p ack -e 40 -c 1 -i 16 -a 1 -x {3.0 0.0 -1 ------- null}
r -t 0.40072 -s 2 -d 3 -p tcp -e 1540 -c 1 -i 11 -a 1 -x {0.0 3.0 4 ------- null}
+ -t 0.40072 -s 3 -d 2 -p ack -e 40 -c 1 -i 17 -a 1 -x {3.0 0.0 4 ------- null}
- -t 0.40072 -s 3 -d 2 -p ack -e 40 -c 1 -i 17 -a 1 -x {3.0 0.0 4 ------- null}
h -t 0.40072 -s 3 -d 2 -p ack -e 40 -c 1 -i 17 -a 1 -x {3.0 0.0 -1 ------- null}
- -t 0.40304 -s 2 -d 3 -p cbr -e 1000 -c 2 -i 14 -a 2 -x {1.0 3.1 4 ------- null}
h -t 0.40304 -s 2 -d 3 -p cbr -e 1000 -c 2 -i 14 -a 2 -x {1.0 3.1 -1 ------- null}
r -t 0.40888 -s 2 -d 0 -p ack -e 40 -c 1 -i 16 -a 1 -x {3.0 0.0 3 ------- null}
+ -t 0.40888 -s 0 -d 2 -p tcp -e 1540 -c 1 -i 18 -a 1 -x {0.0 3.0 7 ------- null}
- -t 0.40888 -s 0 -d 2 -p tcp -e 1540 -c 1 -i 18 -a 1 -x {0.0 3.0 7 ------- null}
h -t 0.40888 -s 0 -d 2 -p tcp -e 1540 -c 1 -i 18 -a 1 -x {0.0 3.0 -1 ------- null}
+ -t 0.40888 -s 0 -d 2 -p tcp -e 1540 -c 1 -i 19 -a 1 -x {0.0 3.0 8 ------- null}
r -t 0.41104 -s 3 -d 2 -p ack -e 40 -c 1 -i 17 -a 1 -x {3.0 0.0 4 ------- null}
+ -t 0.41104 -s 2 -d 0 -p ack -e 40 -c 1 -i 17 -a 1 -x {3.0 0.0 4 ------- null}
- -t 0.41104 -s 2 -d 0 -p ack -e 40 -c 1 -i 17 -a 1 -x {3.0 0.0 4 ------- null}
h -t 0.41104 -s 2 -d 0 -p ack -e 40 -c 1 -i 17 -a 1 -x {3.0 0.0 -1 ------- null}
- -t 0.41104 -s 2 -d 3 -p tcp -e 1540 -c 1 -i 13 -a 1 -x {0.0 3.0 6 ------- null}
h -t 0.41104 -s 2 -d 3 -p tcp -e 1540 -c 1 -i 13 -a 1 -x {0.0 3.0 -1 ------- null}
r -t 0.41304 -s 2 -d 3 -p tcp -e 1540 -c 1 -i 12 -a 1 -x {0.0 3.0 5 ------- null}
+ -t 0.41304 -s 3 -d 2 -p ack -e 40 -c 1 -i 20 -a 1 -x {3.0 0.0 5 ------- null}
- -t 0.41304 -s 3 -d 2 -p ack -e 40 -c 1 -i 20 -a 1 -x {3.0 0.0 5 ------- null}
h -t 0.41304 -s 3 -d 2 -p ack -e 40 -c 1 -i 20 -a 1 -x {3.0 0.0 -1 ------- null}
- -t 0.41504 -s 0 -d 2 -p tcp -e 1540 -c 1 -i 19 -a 1 -x {0.0 3.0 8 ------- null}
h -t 0.41504 -s 0 -d 2 -p tcp -e 1540 -c 1 -i 19 -a 1 -x {0.0 3.0 -1 ------- null}
r -t 0.42104 -s 2 -d 3 -p cbr -e 1000 -c 2 -i 14 -a 2 -x {1.0 3.1 4 ------- null}
r -t 0.4212 -s 2 -d 0 -p ack -e 40 -c 1 -i 17 -a 1 -x {3.0 0.0 4 ------- null}
+ -t 0.4212 -s 0 -d 2 -p tcp -e 1540 -c 1 -i 21 -a 1 -x {0.0 3.0 9 ------- null}
+ -t 0.4212 -s 0 -d 2 -p tcp -e 1540 -c 1 -i 22 -a 1 -x {0.0 3.0 10 ------- null}
- -t 0.4212 -s 0 -d 2 -p tcp -e 1540 -c 1 -i 21 -a 1 -x {0.0 3.0 9 ------- null}
h -t 0.4212 -s 0 -d 2 -p tcp -e 1540 -c 1 -i 21 -a 1 -x {0.0 3.0 -1 ------- null}
r -t 0.42336 -s 3 -d 2 -p ack -e 40 -c 1 -i 20 -a 1 -x {3.0 0.0 5 ------- null}
+ -t 0.42336 -s 2 -d 0 -p ack -e 40 -c 1 -i 20 -a 1 -x {3.0 0.0 5 ------- null}
- -t 0.42336 -s 2 -d 0 -p ack -e 40 -c 1 -i 20 -a 1 -x {3.0 0.0 5 ------- null}
h -t 0.42336 -s 2 -d 0 -p ack -e 40 -c 1 -i 20 -a 1 -x {3.0 0.0 -1 ------- null}
r -t 0.42504 -s 0 -d 2 -p tcp -e 1540 -c 1 -i 18 -a 1 -x {0.0 3.0 7 ------- null}
+ -t 0.42504 -s 2 -d 3 -p tcp -e 1540 -c 1 -i 18 -a 1 -x {0.0 3.0 7 ------- null}
- -t 0.42504 -s 2 -d 3 -p tcp -e 1540 -c 1 -i 18 -a 1 -x {0.0 3.0 7 ------- null}
h -t 0.42504 -s 2 -d 3 -p tcp -e 1540 -c 1 -i 18 -a 1 -x {0.0 3.0 -1 ------- null}
- -t 0.42736 -s 0 -d 2 -p tcp -e 1540 -c 1 -i 22 -a 1 -x {0.0 3.0 10 ------- null}
h -t 0.42736 -s 0 -d 2 -p tcp -e 1540 -c 1 -i 22 -a 1 -x {0.0 3.0 -1 ------- null}
+ -t 0.43 -s 1 -d 2 -p cbr -e 1000 -c 2 -i 23 -a 2 -x {1.0 3.1 6 ------- null}
- -t 0.43 -s 1 -d 2 -p cbr -e 1000 -c 2 -i 23 -a 2 -x {1.0 3.1 6 ------- null}
h -t 0.43 -s 1 -d 2 -p cbr -e 1000 -c 2 -i 23 -a 2 -x {1.0 3.1 -1 ------- null}
+ -t 0.43 -s 1 -d 2 -p cbr -e 500 -c 2 -i 24 -a 2 -x {1.0 3.1 7 ------- null}
r -t 0.4312 -s 0 -d 2 -p tcp -e 1540 -c 1 -i 19 -a 1 -x {0.0 3.0 8 ------- null}
+ -t 0.4312 -s 2 -d 3 -p tcp -e 1540 -c 1 -i 19 -a 1 -x {0.0 3.0 8 ------- null}
r -t 0.43336 -s 2 -d 3 -p tcp -e 1540 -c 1 -i 13 -a 1 -x {0.0 3.0 6 ------- null}
+ -t 0.43336 -s 3 -d 2 -p ack -e 40 -c 1 -i 25 -a 1 -x {3.0 0.0 6 ------- null}
- -t 0.43336 -s 3 -d 2 -p ack -e 40 -c 1 -i 25 -a 1 -x {3.0 0.0 6 ------- null}
h -t 0.43336 -s 3 -d 2 -p ack -e 40 -c 1 -i 25 -a 1 -x {3.0 0.0 -1 ------- null}
r -t 0.43352 -s 2 -d 0 -p ack -e 40 -c 1 -i 20 -a 1 -x {3.0 0.0 5 ------- null}
+ -t 0.43352 -s 0 -d 2 -p tcp -e 1540 -c 1 -i 26 -a 1 -x {0.0 3.0 11 ------- null}
+ -t 0.43352 -s 0 -d 2 -p tcp -e 1540 -c 1 -i 27 -a 1 -x {0.0 3.0 12 ------- null}
- -t 0.43352 -s 0 -d 2 -p tcp -e 1540 -c 1 -i 26 -a 1 -x {0.0 3.0 11 ------- null}
h -t 0.43352 -s 0 -d 2 -p tcp -e 1540 -c 1 -i 26 -a 1 -x {0.0 3.0 -1 ------- null}
- -t 0.434 -s 1 -d 2 -p cbr -e 500 -c 2 -i 24 -a 2 -x {1.0 3.1 7 ------- null}
h -t 0.434 -s 1 -d 2 -p cbr -e 500 -c 2 -i 24 -a 2 -x {1.0 3.1 -1 ------- null}
r -t 0.43736 -s 0 -d 2 -p tcp -e 1540 -c 1 -i 21 -a 1 -x {0.0 3.0 9 ------- null}
+ -t 0.43736 -s 2 -d 3 -p tcp -e 1540 -c 1 -i 21 -a 1 -x {0.0 3.0 9 ------- null}
- -t 0.43736 -s 2 -d 3 -p tcp -e 1540 -c 1 -i 19 -a 1 -x {0.0 3.0 8 ------- null}
h -t 0.43736 -s 2 -d 3 -p tcp -e 1540 -c 1 -i 19 -a 1 -x {0.0 3.0 -1 ------- null}
- -t 0.43968 -s 0 -d 2 -p tcp -e 1540 -c 1 -i 27 -a 1 -x {0.0 3.0 12 ------- null}
h -t 0.43968 -s 0 -d 2 -p tcp -e 1540 -c 1 -i 27 -a 1 -x {0.0 3.0 -1 ------- null}
r -t 0.44352 -s 0 -d 2 -p tcp -e 1540 -c 1 -i 22 -a 1 -x {0.0 3.0 10 ------- null}
+ -t 0.44352 -s 2 -d 3 -p tcp -e 1540 -c 1 -i 22 -a 1 -x {0.0 3.0 10 ------- null}
r -t 0.44368 -s 3 -d 2 -p ack -e 40 -c 1 -i 25 -a 1 -x {3.0 0.0 6 ------- null}
+ -t 0.44368 -s 2 -d 0 -p ack -e 40 -c 1 -i 25 -a 1 -x {3.0 0.0 6 ------- null}
- -t 0.44368 -s 2 -d 0 -p ack -e 40 -c 1 -i 25 -a 1 -x {3.0 0.0 6 ------- null}
h -t 0.44368 -s 2 -d 0 -p ack -e 40 -c 1 -i 25 -a 1 -x {3.0 0.0 -1 ------- null}
r -t 0.444 -s 1 -d 2 -p cbr -e 1000 -c 2 -i 23 -a 2 -x {1.0 3.1 6 ------- null}
+ -t 0.444 -s 2 -d 3 -p cbr -e 1000 -c 2 -i 23 -a 2 -x {1.0 3.1 6 ------- null}
r -t 0.446 -s 1 -d 2 -p cbr -e 500 -c 2 -i 24 -a 2 -x {1.0 3.1 7 ------- null}
+ -t 0.446 -s 2 -d 3 -p cbr -e 500 -c 2 -i 24 -a 2 -x {1.0 3.1 7 ------- null}
d -t 0.446 -s 2 -d 3 -p cbr -e 500 -c 2 -i 24 -a 2 -x {1.0 3.1 7 ------- null}
r -t 0.44736 -s 2 -d 3 -p tcp -e 1540 -c 1 -i 18 -a 1 -x {0.0 3.0 7 ------- null}
+ -t 0.44736 -s 3 -d 2 -p ack -e 40 -c 1 -i 28 -a 1 -x {3.0 0.0 7 ------- null}
- -t 0.44736 -s 3 -d 2 -p ack -e 40 -c 1 -i 28 -a 1 -x {3.0 0.0 7 ------- null}
h -t 0.44736 -s 3 -d 2 -p ack -e 40 -c 1 -i 28 -a 1 -x {3.0 0.0 -1 ------- null}
r -t 0.44968 -s 0 -d 2 -p tcp -e 1540 -c 1 -i 26 -a 1 -x {0.0 3.0 11 ------- null}
+ -t 0.44968 -s 2 -d 3 -p tcp -e 1540 -c 1 -i 26 -a 1 -x {0.0 3.0 11 ------- null}
d -t 0.44968 -s 2 -d 3 -p tcp -e 1540 -c 1 -i 26 -a 1 -x {0.0 3.0 11 ------- null}
- -t 0.44968 -s 2 -d 3 -p tcp -e 1540 -c 1 -i 21 -a 1 -x {0.0 3.0 9 ------- null}
h -t 0.44968 -s 2 -d 3 -p tcp -e 1540 -c 1 -i 21 -a 1 -x {0.0 3.0 -1 ------- null}
r -t 0.45384 -s 2 -d 0 -p ack -e 40 -c 1 -i 25 -a 1 -x {3.0 0.0 6 ------- null}
+ -t 0.45384 -s 0 -d 2 -p tcp -e 1540 -c 1 -i 29 -a 1 -x {0.0 3.0 13 ------- null}
- -t 0.45384 -s 0 -d 2 -p tcp -e 1540 -c 1 -i 29 -a 1 -x {0.0 3.0 13 ------- null}
h -t 0.45384 -s 0 -d 2 -p tcp -e 1540 -c 1 -i 29 -a 1 -x {0.0 3.0 -1 ------- null}
+ -t 0.45384 -s 0 -d 2 -p tcp -e 1540 -c 1 -i 30 -a 1 -x {0.0 3.0 14 ------- null}
r -t 0.45584 -s 0 -d 2 -p tcp -e 1540 -c 1 -i 27 -a 1 -x {0.0 3.0 12 ------- null}
+ -t 0.45584 -s 2 -d 3 -p tcp -e 1540 -c 1 -i 27 -a 1 -x {0.0 3.0 12 ------- null}
r -t 0.45768 -s 3 -d 2 -p ack -e 40 -c 1 -i 28 -a 1 -x {3.0 0.0 7 ------- null}
+ -t 0.45768 -s 2 -d 0 -p ack -e 40 -c 1 -i 28 -a 1 -x {3.0 0.0 7 ------- null}
- -t 0.45768 -s 2 -d 0 -p ack -e 40 -c 1 -i 28 -a 1 -x {3.0 0.0 7 ------- null}
h -t 0.45768 -s 2 -d 0 -p ack -e 40 -c 1 -i 28 -a 1 -x {3.0 0.0 -1 ------- null}
r -t 0.45968 -s 2 -d 3 -p tcp -e 1540 -c 1 -i 19 -a 1 -x {0.0 3.0 8 ------- null}
+ -t 0.45968 -s 3 -d 2 -p ack -e 40 -c 1 -i 31 -a 1 -x {3.0 0.0 8 ------- null}
- -t 0.45968 -s 3 -d 2 -p ack -e 40 -c 1 -i 31 -a 1 -x {3.0 0.0 8 ------- null}
h -t 0.45968 -s 3 -d 2 -p ack -e 40 -c 1 -i 31 -a 1 -x {3.0 0.0 -1 ------- null}
- -t 0.46 -s 0 -d 2 -p tcp -e 1540 -c 1 -i 30 -a 1 -x {0.0 3.0 14 ------- null}
h -t 0.46 -s 0 -d 2 -p tcp -e 1540 -c 1 -i 30 -a 1 -x {0.0 3.0 -1 ------- null}
- -t 0.462 -s 2 -d 3 -p tcp -e 1540 -c 1 -i 22 -a 1 -x {0.0 3.0 10 ------- null}
h -t 0.462 -s 2 -d 3 -p tcp -e 1540 -c 1 -i 22 -a 1 -x {0.0 3.0 -1 ------- null}
r -t 0.46784 -s 2 -d 0 -p ack -e 40 -c 1 -i 28 -a 1 -x {3.0 0.0 7 ------- null}
+ -t 0.46784 -s 0 -d 2 -p tcp -e 1540 -c 1 -i 32 -a 1 -x {0.0 3.0 15 ------- null}
- -t 0.46784 -s 0 -d 2 -p tcp -e 1540 -c 1 -i 32 -a 1 -x {0.0 3.0 15 ------- null}
h -t 0.46784 -s 0 -d 2 -p tcp -e 1540 -c 1 -i 32 -a 1 -x {0.0 3.0 -1 ------- null}
+ -t 0.46784 -s 0 -d 2 -p tcp -e 1540 -c 1 -i 33 -a 1 -x {0.0 3.0 16 ------- null}
r -t 0.47 -s 0 -d 2 -p tcp -e 1540 -c 1 -i 29 -a 1 -x {0.0 3.0 13 ------- null}
+ -t 0.47 -s 2 -d 3 -p tcp -e 1540 -c 1 -i 29 -a 1 -x {0.0 3.0 13 ------- null}
r -t 0.47 -s 3 -d 2 -p ack -e 40 -c 1 -i 31 -a 1 -x {3.0 0.0 8 ------- null}
+ -t 0.47 -s 2 -d 0 -p ack -e 40 -c 1 -i 31 -a 1 -x {3.0 0.0 8 ------- null}
- -t 0.47 -s 2 -d 0 -p ack -e 40 -c 1 -i 31 -a 1 -x {3.0 0.0 8 ------- null}
h -t 0.47 -s 2 -d 0 -p ack -e 40 -c 1 -i 31 -a 1 -x {3.0 0.0 -1 ------- null}
r -t 0.472 -s 2 -d 3 -p tcp -e 1540 -c 1 -i 21 -a 1 -x {0.0 3.0 9 ------- null}
+ -t 0.472 -s 3 -d 2 -p ack -e 40 -c 1 -i 34 -a 1 -x {3.0 0.0 9 ------- null}
- -t 0.472 -s 3 -d 2 -p ack -e 40 -c 1 -i 34 -a 1 -x {3.0 0.0 9 ------- null}
h -t 0.472 -s 3 -d 2 -p ack -e 40 -c 1 -i 34 -a 1 -x {3.0 0.0 -1 ------- null}
- -t 0.474 -s 0 -d 2 -p tcp -e 1540 -c 1 -i 33 -a 1 -x {0.0 3.0 16 ------- null}
h -t 0.474 -s 0 -d 2 -p tcp -e 1540 -c 1 -i 33 -a 1 -x {0.0 3.0 -1 ------- null}
- -t 0.47432 -s 2 -d 3 -p cbr -e 1000 -c 2 -i 23 -a 2 -x {1.0 3.1 6 ------- null}
h -t 0.47432 -s 2 -d 3 -p cbr -e 1000 -c 2 -i 23 -a 2 -x {1.0 3.1 -1 ------- null}
r -t 0.47616 -s 0 -d 2 -p tcp -e 1540 -c 1 -i 30 -a 1 -x {0.0 3.0 14 ------- null}
+ -t 0.47616 -s 2 -d 3 -p tcp -e 1540 -c 1 -i 30 -a 1 -x {0.0 3.0 14 ------- null}
r -t 0.48016 -s 2 -d 0 -p ack -e 40 -c 1 -i 31 -a 1 -x {3.0 0.0 8 ------- null}
+ -t 0.48016 -s 0 -d 2 -p tcp -e 1540 -c 1 -i 35 -a 1 -x {0.0 3.0 17 ------- null}
+ -t 0.48016 -s 0 -d 2 -p tcp -e 1540 -c 1 -i 36 -a 1 -x {0.0 3.0 18 ------- null}
- -t 0.48016 -s 0 -d 2 -p tcp -e 1540 -c 1 -i 35 -a 1 -x {0.0 3.0 17 ------- null}
h -t 0.48016 -s 0 -d 2 -p tcp -e 1540 -c 1 -i 35 -a 1 -x {0.0 3.0 -1 ------- null}
r -t 0.48232 -s 3 -d 2 -p ack -e 40 -c 1 -i 34 -a 1 -x {3.0 0.0 9 ------- null}
+ -t 0.48232 -s 2 -d 0 -p ack -e 40 -c 1 -i 34 -a 1 -x {3.0 0.0 9 ------- null}
- -t 0.48232 -s 2 -d 0 -p ack -e 40 -c 1 -i 34 -a 1 -x {3.0 0.0 9 ------- null}
h -t 0.48232 -s 2 -d 0 -p ack -e 40 -c 1 -i 34 -a 1 -x {3.0 0.0 -1 ------- null}
- -t 0.48232 -s 2 -d 3 -p tcp -e 1540 -c 1 -i 27 -a 1 -x {0.0 3.0 12 ------- null}
h -t 0.48232 -s 2 -d 3 -p tcp -e 1540 -c 1 -i 27 -a 1 -x {0.0 3.0 -1 ------- null}
r -t 0.484 -s 0 -d 2 -p tcp -e 1540 -c 1 -i 32 -a 1 -x {0.0 3.0 15 ------- null}
+ -t 0.484 -s 2 -d 3 -p tcp -e 1540 -c 1 -i 32 -a 1 -x {0.0 3.0 15 ------- null}
r -t 0.48432 -s 2 -d 3 -p tcp -e 1540 -c 1 -i 22 -a 1 -x {0.0 3.0 10 ------- null}
+ -t 0.48432 -s 3 -d 2 -p ack -e 40 -c 1 -i 37 -a 1 -x {3.0 0.0 10 ------- null}
- -t 0.48432 -s 3 -d 2 -p ack -e 40 -c 1 -i 37 -a 1 -x {3.0 0.0 10 ------- null}
h -t 0.48432 -s 3 -d 2 -p ack -e 40 -c 1 -i 37 -a 1 -x {3.0 0.0 -1 ------- null}
- -t 0.48632 -s 0 -d 2 -p tcp -e 1540 -c 1 -i 36 -a 1 -x {0.0 3.0 18 ------- null}
h -t 0.48632 -s 0 -d 2 -p tcp -e 1540 -c 1 -i 36 -a 1 -x {0.0 3.0 -1 ------- null}
+ -t 0.49 -s 1 -d 2 -p cbr -e 1000 -c 2 -i 38 -a 2 -x {1.0 3.1 8 ------- null}
- -t 0.49 -s 1 -d 2 -p cbr -e 1000 -c 2 -i 38 -a 2 -x {1.0 3.1 8 ------- null}
h -t 0.49 -s 1 -d 2 -p cbr -e 1000 -c 2 -i 38 -a 2 -x {1.0 3.1 -1 ------- null}
+ -t 0.49 -s 1 -d 2 -p cbr -e 500 -c 2 -i 39 -a 2 -x {1.0 3.1 9 ------- null}
r -t 0.49016 -s 0 -d 2 -p tcp -e 1540 -c 1 -i 33 -a 1 -x {0.0 3.0 16 ------- null}
+ -t 0.49016 -s 2 -d 3 -p tcp -e 1540 -c 1 -i 33 -a 1 -x {0.0 3.0 16 ------- null}
d -t 0.49016 -s 2 -d 3 -p tcp -e 1540 -c 1 -i 33 -a 1 -x {0.0 3.0 16 ------- null}
r -t 0.49232 -s 2 -d 3 -p cbr -e 1000 -c 2 -i 23 -a 2 -x {1.0 3.1 6 ------- null}
r -t 0.49248 -s 2 -d 0 -p ack -e 40 -c 1 -i 34 -a 1 -x {3.0 0.0 9 ------- null}
+ -t 0.49248 -s 0 -d 2 -p tcp -e 1540 -c 1 -i 40 -a 1 -x {0.0 3.0 19 ------- null}
+ -t 0.49248 -s 0 -d 2 -p tcp -e 1540 -c 1 -i 41 -a 1 -x {0.0 3.0 20 ------- null}
- -t 0.49248 -s 0 -d 2 -p tcp -e 1540 -c 1 -i 40 -a 1 -x {0.0 3.0 19 ------- null}
h -t 0.49248 -s 0 -d 2 -p tcp -e 1540 -c 1 -i 40 -a 1 -x {0.0 3.0 -1 ------- null}
- -t 0.494 -s 1 -d 2 -p cbr -e 500 -c 2 -i 39 -a 2 -x {1.0 3.1 9 ------- null}
h -t 0.494 -s 1 -d 2 -p cbr -e 500 -c 2 -i 39 -a 2 -x {1.0 3.1 -1 ------- null}
- -t 0.49464 -s 2 -d 3 -p tcp -e 1540 -c 1 -i 29 -a 1 -x {0.0 3.0 13 ------- null}
h -t 0.49464 -s 2 -d 3 -p tcp -e 1540 -c 1 -i 29 -a 1 -x {0.0 3.0 -1 ------- null}
r -t 0.49464 -s 3 -d 2 -p ack -e 40 -c 1 -i 37 -a 1 -x {3.0 0.0 10 ------- null}
+ -t 0.49464 -s 2 -d 0 -p ack -e 40 -c 1 -i 37 -a 1 -x {3.0 0.0 10 ------- null}
- -t 0.49464 -s 2 -d 0 -p ack -e 40 -c 1 -i 37 -a 1 -x {3.0 0.0 10 ------- null}
h -t 0.49464 -s 2 -d 0 -p ack -e 40 -c 1 -i 37 -a 1 -x {3.0 0.0 -1 ------- null}
r -t 0.49632 -s 0 -d 2 -p tcp -e 1540 -c 1 -i 35 -a 1 -x {0.0 3.0 17 ------- null}
+ -t 0.49632 -s 2 -d 3 -p tcp -e 1540 -c 1 -i 35 -a 1 -x {0.0 3.0 17 ------- null}
- -t 0.49864 -s 0 -d 2 -p tcp -e 1540 -c 1 -i 41 -a 1 -x {0.0 3.0 20 ------- null}
h -t 0.49864 -s 0 -d 2 -p tcp -e 1540 -c 1 -i 41 -a 1 -x {0.0 3.0 -1 ------- null}
r -t 0.50248 -s 0 -d 2 -p tcp -e 1540 -c 1 -i 36 -a 1 -x {0.0 3.0 18 ------- null}
+ -t 0.50248 -s 2 -d 3 -p tcp -e 1540 -c 1 -i 36 -a 1 -x {0.0 3.0 18 ------- null}
d -t 0.50248 -s 2 -d 3 -p tcp -e 1540 -c 1 -i 36 -a 1 -x {0.0 3.0 18 ------- null}
r -t 0.504 -s 1 -d 2 -p cbr -e 1000 -c 2 -i 38 -a 2 -x {1.0 3.1 8 ------- null}
+ -t 0.504 -s 2 -d 3 -p cbr -e 1000 -c 2 -i 38 -a 2 -x {1.0 3.1 8 ------- null}
d -t 0.504 -s 2 -d 3 -p cbr -e 1000 -c 2 -i 38 -a 2 -x {1.0 3.1 8 ------- null}
r -t 0.50464 -s 2 -d 3 -p tcp -e 1540 -c 1 -i 27 -a 1 -x {0.0 3.0 12 ------- null}
+ -t 0.50464 -s 3 -d 2 -p ack -e 40 -c 1 -i 42 -a 1 -x {3.0 0.0 10 ------- null}
- -t 0.50464 -s 3 -d 2 -p ack -e 40 -c 1 -i 42 -a 1 -x {3.0 0.0 10 ------- null}
h -t 0.50464 -s 3 -d 2 -p ack -e 40 -c 1 -i 42 -a 1 -x {3.0 0.0 -1 ------- null}
r -t 0.5048 -s 2 -d 0 -p ack -e 40 -c 1 -i 37 -a 1 -x {3.0 0.0 10 ------- null}
+ -t 0.5048 -s 0 -d 2 -p tcp -e 1540 -c 1 -i 43 -a 1 -x {0.0 3.0 21 ------- null}
+ -t 0.5048 -s 0 -d 2 -p tcp -e 1540 -c 1 -i 44 -a 1 -x {0.0 3.0 22 ------- null}
- -t 0.5048 -s 0 -d 2 -p tcp -e 1540 -c 1 -i 43 -a 1 -x {0.0 3.0 21 ------- null}
h -t 0.5048 -s 0 -d 2 -p tcp -e 1540 -c 1 -i 43 -a 1 -x {0.0 3.0 -1 ------- null}
r -t 0.506 -s 1 -d 2 -p cbr -e 500 -c 2 -i 39 -a 2 -x {1.0 3.1 9 ------- null}
+ -t 0.506 -s 2 -d 3 -p cbr -e 500 -c 2 -i 39 -a 2 -x {1.0 3.1 9 ------- null}
d -t 0.506 -s 2 -d 3 -p cbr -e 500 -c 2 -i 39 -a 2 -x {1.0 3.1 9 ------- null}
- -t 0.50696 -s 2 -d 3 -p tcp -e 1540 -c 1 -i 30 -a 1 -x {0.0 3.0 14 ------- null}
h -t 0.50696 -s 2 -d 3 -p tcp -e 1540 -c 1 -i 30 -a 1 -x {0.0 3.0 -1 ------- null}
r -t 0.50864 -s 0 -d 2 -p tcp -e 1540 -c 1 -i 40 -a 1 -x {0.0 3.0 19 ------- null}
+ -t 0.50864 -s 2 -d 3 -p tcp -e 1540 -c 1 -i 40 -a 1 -x {0.0 3.0 19 ------- null}
- -t 0.51096 -s 0 -d 2 -p tcp -e 1540 -c 1 -i 44 -a 1 -x {0.0 3.0 22 ------- null}
h -t 0.51096 -s 0 -d 2 -p tcp -e 1540 -c 1 -i 44 -a 1 -x {0.0 3.0 -1 ------- null}
r -t 0.5148 -s 0 -d 2 -p tcp -e 1540 -c 1 -i 41 -a 1 -x {0.0 3.0 20 ------- null}
+ -t 0.5148 -s 2 -d 3 -p tcp -e 1540 -c 1 -i 41 -a 1 -x {0.0 3.0 20 ------- null}
d -t 0.5148 -s 2 -d 3 -p tcp -e 1540 -c 1 -i 41 -a 1 -x {0.0 3.0 20 ------- null}
r -t 0.51496 -s 3 -d 2 -p ack -e 40 -c 1 -i 42 -a 1 -x {3.0 0.0 10 ------- null}
+ -t 0.51496 -s 2 -d 0 -p ack -e 40 -c 1 -i 42 -a 1 -x {3.0 0.0 10 ------- null}
- -t 0.51496 -s 2 -d 0 -p ack -e 40 -c 1 -i 42 -a 1 -x {3.0 0.0 10 ------- null}
h -t 0.51496 -s 2 -d 0 -p ack -e 40 -c 1 -i 42 -a 1 -x {3.0 0.0 -1 ------- null}
r -t 0.51696 -s 2 -d 3 -p tcp -e 1540 -c 1 -i 29 -a 1 -x {0.0 3.0 13 ------- null}
+ -t 0.51696 -s 3 -d 2 -p ack -e 40 -c 1 -i 45 -a 1 -x {3.0 0.0 10 ------- null}
- -t 0.51696 -s 3 -d 2 -p ack -e 40 -c 1 -i 45 -a 1 -x {3.0 0.0 10 ------- null}
h -t 0.51696 -s 3 -d 2 -p ack -e 40 -c 1 -i 45 -a 1 -x {3.0 0.0 -1 ------- null}
- -t 0.51928 -s 2 -d 3 -p tcp -e 1540 -c 1 -i 32 -a 1 -x {0.0 3.0 15 ------- null}
h -t 0.51928 -s 2 -d 3 -p tcp -e 1540 -c 1 -i 32 -a 1 -x {0.0 3.0 -1 ------- null}
r -t 0.52096 -s 0 -d 2 -p tcp -e 1540 -c 1 -i 43 -a 1 -x {0.0 3.0 21 ------- null}
+ -t 0.52096 -s 2 -d 3 -p tcp -e 1540 -c 1 -i 43 -a 1 -x {0.0 3.0 21 ------- null}
r -t 0.52512 -s 2 -d 0 -p ack -e 40 -c 1 -i 42 -a 1 -x {3.0 0.0 10 ------- null}
+ -t 0.52512 -s 0 -d 2 -p tcp -e 1540 -c 1 -i 46 -a 1 -x {0.0 3.0 23 ------- null}
- -t 0.52512 -s 0 -d 2 -p tcp -e 1540 -c 1 -i 46 -a 1 -x {0.0 3.0 23 ------- null}
h -t 0.52512 -s 0 -d 2 -p tcp -e 1540 -c 1 -i 46 -a 1 -x {0.0 3.0 -1 ------- null}
r -t 0.52712 -s 0 -d 2 -p tcp -e 1540 -c 1 -i 44 -a 1 -x {0.0 3.0 22 ------- null}
+ -t 0.52712 -s 2 -d 3 -p tcp -e 1540 -c 1 -i 44 -a 1 -x {0.0 3.0 22 ------- null}
d -t 0.52712 -s 2 -d 3 -p tcp -e 1540 -c 1 -i 44 -a 1 -x {0.0 3.0 22 ------- null}
r -t 0.52728 -s 3 -d 2 -p ack -e 40 -c 1 -i 45 -a 1 -x {3.0 0.0 10 ------- null}
+ -t 0.52728 -s 2 -d 0 -p ack -e 40 -c 1 -i 45 -a 1 -x {3.0 0.0 10 ------- null}
- -t 0.52728 -s 2 -d 0 -p ack -e 40 -c 1 -i 45 -a 1 -x {3.0 0.0 10 ------- null}
h -t 0.52728 -s 2 -d 0 -p ack -e 40 -c 1 -i 45 -a 1 -x {3.0 0.0 -1 ------- null}
r -t 0.52928 -s 2 -d 3 -p tcp -e 1540 -c 1 -i 30 -a 1 -x {0.0 3.0 14 ------- null}
+ -t 0.52928 -s 3 -d 2 -p ack -e 40 -c 1 -i 47 -a 1 -x {3.0 0.0 10 ------- null}
- -t 0.52928 -s 3 -d 2 -p ack -e 40 -c 1 -i 47 -a 1 -x {3.0 0.0 10 ------- null}
h -t 0.52928 -s 3 -d 2 -p ack -e 40 -c 1 -i 47 -a 1 -x {3.0 0.0 -1 ------- null}
- -t 0.5316 -s 2 -d 3 -p tcp -e 1540 -c 1 -i 35 -a 1 -x {0.0 3.0 17 ------- null}
h -t 0.5316 -s 2 -d 3 -p tcp -e 1540 -c 1 -i 35 -a 1 -x {0.0 3.0 -1 ------- null}
r -t 0.53744 -s 2 -d 0 -p ack -e 40 -c 1 -i 45 -a 1 -x {3.0 0.0 10 ------- null}
+ -t 0.53744 -s 0 -d 2 -p tcp -e 1540 -c 1 -i 48 -a 1 -x {0.0 3.0 24 ------- null}
- -t 0.53744 -s 0 -d 2 -p tcp -e 1540 -c 1 -i 48 -a 1 -x {0.0 3.0 24 ------- null}
h -t 0.53744 -s 0 -d 2 -p tcp -e 1540 -c 1 -i 48 -a 1 -x {0.0 3.0 -1 ------- null}
r -t 0.5396 -s 3 -d 2 -p ack -e 40 -c 1 -i 47 -a 1 -x {3.0 0.0 10 ------- null}
+ -t 0.5396 -s 2 -d 0 -p ack -e 40 -c 1 -i 47 -a 1 -x {3.0 0.0 10 ------- null}
- -t 0.5396 -s 2 -d 0 -p ack -e 40 -c 1 -i 47 -a 1 -x {3.0 0.0 10 ------- null}
h -t 0.5396 -s 2 -d 0 -p ack -e 40 -c 1 -i 47 -a 1 -x {3.0 0.0 -1 ------- null}
r -t 0.54128 -s 0 -d 2 -p tcp -e 1540 -c 1 -i 46 -a 1 -x {0.0 3.0 23 ------- null}
+ -t 0.54128 -s 2 -d 3 -p tcp -e 1540 -c 1 -i 46 -a 1 -x {0.0 3.0 23 ------- null}
r -t 0.5416 -s 2 -d 3 -p tcp -e 1540 -c 1 -i 32 -a 1 -x {0.0 3.0 15 ------- null}
+ -t 0.5416 -s 3 -d 2 -p ack -e 40 -c 1 -i 49 -a 1 -x {3.0 0.0 10 ------- null}
- -t 0.5416 -s 3 -d 2 -p ack -e 40 -c 1 -i 49 -a 1 -x {3.0 0.0 10 ------- null}
h -t 0.5416 -s 3 -d 2 -p ack -e 40 -c 1 -i 49 -a 1 -x {3.0 0.0 -1 ------- null}
- -t 0.54392 -s 2 -d 3 -p tcp -e 1540 -c 1 -i 40 -a 1 -x {0.0 3.0 19 ------- null}
h -t 0.54392 -s 2 -d 3 -p tcp -e 1540 -c 1 -i 40 -a 1 -x {0.0 3.0 -1 ------- null}